  156
Geometry Step: 0
    C     -6.18532000      1.39772000     -0.36212500      3.94038359
    C     -6.09825000     -0.02522380     -0.28570000      3.94035279
    C     -4.84033000     -0.65086900     -0.03218400      3.94033333
    C     -3.67080000      0.14692400      0.15159800      3.94036293
    C     -3.75720000      1.56972000      0.07214620      3.94034765
    C     -5.01400000      2.19511000     -0.18791200      3.94035077
    C     -4.75213000     -2.07646000      0.03990980      4.06805142
    C     -4.67511000     -3.30337000      0.09583940      3.99324958
    C     -4.58853000     -4.66941000      0.16013700      4.00264632
    C     -4.50977000     -5.90251000      0.21788200      4.00139228
    C     -4.42115000     -7.26452000      0.28343900      4.00663174
    C     -4.34038000     -8.49717000      0.34469700      3.99794262
    C     -4.24912000     -9.86295000      0.41153200      3.99943423
    C     -4.16703000    -11.08900000      0.47364300      4.06812173
    C     -4.06806000    -12.51490000      0.53723100      3.93189765
    C     -2.41364000     -0.47875100      0.42183300      4.06805305
    C     -1.33427000     -1.01557000      0.66882000      3.99326093
    C     -0.13232700     -1.61171000      0.94697200      4.00265025
    C      0.95162300     -2.14784000      1.20690000      4.00139167
    C      2.14901000     -2.73965000      1.49492000      4.00663538
    C      3.23242000     -3.27438000      1.75929000      3.99794358
    C      4.43268000     -3.86701000      2.05264000      3.99943668
    C      5.51058000     -4.39841000      2.31605000      4.06811800
    C      6.76189000     -5.01813000      2.62759000      3.93188400
    C     -2.58600000      2.36890000      0.25893900      4.06804833
    C     -1.58074000      3.05810000      0.42868800      3.99325575
    C     -0.46323800      3.82743000      0.62118900      4.00264343
    C      0.54234400      4.52487000      0.80140300      4.00139469
    C      1.65291000      5.29543000      1.00174000      4.00662519
    C      2.65617000      5.99479000      1.18645000      3.99795331
    C      3.76925000      6.76762000      1.39144000      3.99941557
    C      4.76794000      7.46176000      1.57732000      4.06813713
    C      5.93236000      8.26504000      1.79205000      3.93192147
    C     -7.27160000     -0.82415600     -0.45919700      4.06804667
    C     -8.28082000     -1.51339000     -0.60303900      3.99325939
    C     -9.40438000     -2.28173000     -0.76055500      4.00264604
    C    -10.41790000     -2.97717000     -0.89884300      4.00139389
    C    -11.53770000     -3.74555000     -1.04936000      4.00663094
    C    -12.55040000     -4.44279000     -1.18323000      3.99794506
    C    -13.67490000     -5.21248000     -1.32825000      3.99942868
    C    -14.68430000     -5.90420000     -1.45616000      4.06812901
    C    -15.86320000     -6.70184000     -1.60104000      3.93188658
    C     -7.44705000      2.02411000     -0.60850300      4.06805122
    C     -8.53541000      2.56157000     -0.81068700      3.99326163
    C     -9.74752000      3.16076000     -1.03258000      4.00265611
    C    -10.84260000      3.70224000     -1.22656000      4.00139022
    C    -12.05310000      4.29961000     -1.43803000      4.00663840
    C    -13.14950000      4.84039000     -1.62550000      3.99794238
    C    -14.36530000      5.43825000     -1.83107000      3.99944719
    C    -15.45710000      5.97508000     -2.01409000      4.06809952
    C    -16.72850000      6.59708000     -2.22253000      3.93185938
    C     -5.09962000      3.62028000     -0.27113500      4.06805101
    C     -5.16941000      4.84659000     -0.34641700      3.99325025
    C     -5.24909000      6.21193000     -0.43181500      4.00264345
    C     -5.32022000      7.44436000     -0.51039400      4.00139811
    C     -5.40182000      8.80521000     -0.60377800      4.00662152
    C     -5.47717000     10.03660000     -0.69156600      3.99795193
    C     -5.56258000     11.40000000     -0.80112000      3.99940710
    C     -5.64126000     12.62350000     -0.90446100      4.06815080
    C     -5.73005000     14.04480000     -1.04339000      3.93190203
    C     -5.22697000    -13.32800000      0.34015600      3.90770270
    C     -5.10798000    -14.73380000      0.39907500      4.09673406
    C     -3.86932000    -15.33110000      0.65023700      4.07169393
    C     -2.72878000    -14.54790000      0.84971500      4.09671140
    C     -2.80883000    -13.13910000      0.79754400      3.90770487
    C    -15.78330000     -8.12733000     -1.53437000      3.90773034
    C    -16.95870000     -8.89674000     -1.67687000      4.09672385
    C    -18.19350000     -8.27441000     -1.88181000      4.07169061
    C    -18.28610000     -6.88125000     -1.94962000      4.09674292
    C    -17.13240000     -6.07900000     -1.81153000      3.90768210
    C      7.92273000     -4.21920000      2.86645000      3.90771286
    C      9.14783000     -4.84883000      3.17718000      4.09672049
    C      9.23064000     -6.24230000      3.25091000      4.07169870
    C      8.10376000     -7.03586000      3.01739000      4.09674296
    C      6.86152000     -6.44194000      2.70460000      3.90769288
    C    -16.83070000      8.02047000     -2.30277000      3.90771242
    C    -17.90790000      5.80006000     -2.35217000      3.90768966
    C    -19.15480000      6.43138000     -2.55318000      4.09676295
    C    -19.24060000      7.82468000     -2.62721000      4.07168326
    C    -18.09490000      8.61617000     -2.50492000      4.09677695
    C      5.85568000      9.68876000      1.69161000      3.90773840
    C      7.01623000     10.46440000      1.90493000      4.09670337
    C      8.23343000      9.84997000      2.21293000      4.07168748
    C      8.32259000      8.45872000      2.31545000      4.09671257
    C      7.18350000      7.65036000      2.10832000      3.90769710
    C     -6.98630000     14.66450000     -1.32769000      3.90771788
    C     -7.05202000     16.06740000     -1.47443000      4.09669379
    C     -5.90116000     16.84940000     -1.34095000      4.07166802
    C     -4.66708000     16.25720000     -1.05744000      4.09673656
    C     -4.56235000     14.85740000     -0.90449600      3.90771085
    H     -5.99017000    -15.35470000      0.24783000      0.91056485
    H    -19.25390000     -6.40770000     -2.10956000      0.91053301
    H    -16.89930000     -9.98323000     -1.62569000      0.91056480
    H      8.18102000     -8.12081000      3.07685000      0.91055516
    H     -3.79241000    -16.41740000      0.69231100      0.91696127
    H     -1.76952000    -15.02460000      1.04758000      0.91054800
    C     -6.50221000    -12.71900000      0.08865210      4.07572521
    H     10.03310000     -4.24104000      3.36035000      0.91056484
    H     10.18270000     -6.71436000      3.49264000      0.91697324
    H     -3.77753000     16.87730000     -0.95338900      0.91055316
    H      6.95888000     11.54940000      1.82792000      0.91053943
    H      9.12110000     10.46120000      2.37451000      0.91695151
    H    -18.17430000      9.70086000     -2.56602000      0.91055765
    H    -20.05450000      5.82521000     -2.65144000      0.91054475
    H    -19.09250000     -8.88097000     -1.98940000      0.91697514
    H    -20.20970000      8.29827000     -2.78288000      0.91698879
    H     -8.00847000     16.54040000     -1.69349000      0.91055043
    H     -5.96693000     17.93100000     -1.45765000      0.91697460
    C    -17.23200000     -4.64874000     -1.88036000      4.07573216
    C    -17.30930000     -3.42281000     -1.93659000      4.00195468
    C    -17.39570000     -2.05423000     -1.99828000      4.00179842
    C    -17.47120000     -0.82120000     -2.05133000      4.00631780
    C    -17.55960000      0.54293300     -2.11122000      4.00631610
    C    -17.64400000      1.77540000     -2.16406000      4.00180007
    C    -17.73650000      3.14358000     -2.22593000      4.00190536
    C    -17.82250000      4.36898000     -2.28120000      4.07577191
    C    -15.65550000      8.83563000     -2.18165000      4.07577188
    C    -14.64030000      9.52263000     -2.08380000      4.00191644
    C    -13.50650000     10.28870000     -1.97477000      4.00179939
    C    -10.32530000     12.42110000     -1.67684000      4.00178665
    C     -9.19029000     13.18480000     -1.56306000      4.00202634
    C     -8.17257000     13.86720000     -1.46004000      4.07566732
    C    -12.48120000     10.97340000     -1.88090000      4.00631039
    C    -11.34880000     11.73400000     -1.77324000      4.00634580
    C     -3.29409000     14.25380000     -0.60886900      4.07573113
    C     -2.21335000     13.72950000     -0.34597200      4.00197475
    C     -1.00923000     13.14050000     -0.05032930      4.00179794
    C      0.07116790     12.60490000      0.22297900      4.00632556
    C      1.26629000     12.01080000      0.52471200      4.00634872
    C      3.54013000     10.86990000      1.10400000      4.00205786
    C      4.60861000     10.32530000      1.37563000      4.07565197
    C      2.34445000     11.47190000      0.80043200      4.00178351
    C      7.28077000      6.22209000      2.21326000      4.07569803
    C      7.35949000      4.99807000      2.30075000      4.00199773
    C      7.44577000      3.63128000      2.39490000      4.00178804
    C      7.52191000      2.39986000      2.47702000      4.00633831
    C      7.60711000      1.03694000      2.56418000      4.00632336
    C      7.68563000     -0.19469400      2.64068000      4.00180429
    C      7.76962000     -1.56251000      2.72096000      4.00198373
    C      7.84288000     -2.78803000      2.79027000      4.07570826
    C      5.70623000     -7.25990000      2.46647000      4.07576809
    C      4.71015000     -7.95117000      2.26142000      4.00191996
    C      3.59787000     -8.72297000      2.03440000      4.00180454
    C      2.59356000     -9.41471000      1.82997000      4.00631557
    C      1.48334000    -10.18330000      1.60838000      4.00633567
    C      0.48042800    -10.87880000      1.40998000      4.00178705
    C     -0.63507800    -11.64980000      1.19657000      4.00199415
    C     -1.63570000    -12.33920000      1.00796000      4.07570405
    C    -14.51750000     -8.77044000     -1.32275000      4.07573248
    C    -13.43020000     -9.31494000     -1.14030000      4.00196810
    C    -12.21500000     -9.91920000     -0.93394400      4.00179479
    C    -11.11860000    -10.45940000     -0.74687900      4.00633165
    C     -9.90593000    -11.05670000     -0.53446900      4.00631843
    C     -8.81069000    -11.59670000     -0.34025000      4.00179954
    C     -7.59350000    -12.19040000     -0.11581700      4.00197811
    H      9.27659000      7.99140000      2.55649000      0.91055665
