|===============================================================================
|
|  DFTB+ release 22.2
|
|  Copyright (C) 2006 - 2022  DFTB+ developers group
|
|===============================================================================
|
|  When publishing results obtained with DFTB+, please cite the following
|  reference:
|
|  * DFTB+, a software package for efficient approximate density functional
|    theory based atomistic simulations, J. Chem. Phys. 152, 124101 (2020).
|    [doi: 10.1063/1.5143190]
|
|  You should also cite additional publications crediting the parametrization
|  data you use. Please consult the documentation of the SK-files for the
|  references.
|
|===============================================================================

Reading input file 'dftb_in.hsd'
Parser version: 12

--------------------------------------------------------------------------------
Reading SK-files:
/home/usr/bin/dftb_plus/parameters/slako/3ob/3ob-3-1/C-C.skf
/home/usr/bin/dftb_plus/parameters/slako/3ob/3ob-3-1/C-H.skf
/home/usr/bin/dftb_plus/parameters/slako/3ob/3ob-3-1/H-H.skf
Done.


Processed input in HSD format written to 'dftb_pin.hsd'

Starting initialization...
--------------------------------------------------------------------------------
Chosen random seed:          292267619
Mode:                        Static calculation
Self consistent charges:     Yes
SCC-tolerance:                 0.100000E-04
Max. scc iterations:                   1000
Shell resolved Hubbard:      Yes
Spin polarisation:           No
Nr. of up electrons:           285.000000
Nr. of down electrons:         285.000000
Periodic boundaries:         No
Electronic solver:           Relatively robust
Mixer:                       Simple mixer
Mixing parameter:                  0.050000
Maximal SCC-cycles:                    1000
Electronic temperature:              0.100000E-07 H      0.272114E-06 eV
Initial charges:             Set automatically (system chrg:   0.000E+00)
Included shells:             C:  s, p
                             H:  s
Using Lennard-Jones dispersion corrections
Extra options:
                             Mulliken analysis

--------------------------------------------------------------------------------

***  Geometry step: 0

 iSCC Total electronic   Diff electronic      SCC error    
    1    0.00000000E+00    0.00000000E+00    0.13397863E+00
    2   -0.24823511E+03   -0.24823511E+03    0.11980012E+00
    3   -0.24824871E+03   -0.13601374E-01    0.11018355E+00
    4   -0.24825775E+03   -0.90454811E-02    0.10152226E+00
    5   -0.24826389E+03   -0.61334924E-02    0.93696693E-01
    6   -0.24826813E+03   -0.42430426E-02    0.86604993E-01
    7   -0.24827113E+03   -0.29957664E-02    0.80160195E-01
    8   -0.24827329E+03   -0.21587373E-02    0.74287799E-01
    9   -0.24827487E+03   -0.15869203E-02    0.70399006E-01
   10   -0.24827606E+03   -0.11890001E-02    0.66732523E-01
   11   -0.24827697E+03   -0.90682879E-03    0.63200127E-01
   12   -0.24827767E+03   -0.70293677E-03    0.59806937E-01
   13   -0.24827822E+03   -0.55287290E-03    0.56555687E-01
   14   -0.24827866E+03   -0.44046551E-03    0.53447216E-01
   15   -0.24827902E+03   -0.35486519E-03    0.50480865E-01
   16   -0.24827931E+03   -0.28868297E-03    0.47654798E-01
   17   -0.24827955E+03   -0.23680730E-03    0.44966268E-01
   18   -0.24827974E+03   -0.19564489E-03    0.42411835E-01
   19   -0.24827990E+03   -0.16262854E-03    0.39987540E-01
   20   -0.24828004E+03   -0.13589443E-03    0.37689047E-01
>> Charges saved for restart in charges.dat
   21   -0.24828015E+03   -0.11406804E-03    0.35511766E-01
   22   -0.24828025E+03   -0.96120404E-04    0.33450939E-01
   23   -0.24828033E+03   -0.81270214E-04    0.31501724E-01
   24   -0.24828040E+03   -0.68916389E-04    0.29659253E-01
   25   -0.24828046E+03   -0.58590874E-04    0.27918678E-01
   26   -0.24828051E+03   -0.49925167E-04    0.26275215E-01
   27   -0.24828055E+03   -0.42626266E-04    0.24724311E-01
   28   -0.24828059E+03   -0.36459120E-04    0.23261284E-01
   29   -0.24828062E+03   -0.31233668E-04    0.21881625E-01
   30   -0.24828065E+03   -0.26795138E-04    0.20581038E-01
   31   -0.24828067E+03   -0.23016704E-04    0.19355381E-01
   32   -0.24828069E+03   -0.19793851E-04    0.18200670E-01
   33   -0.24828071E+03   -0.17040025E-04    0.17113087E-01
   34   -0.24828072E+03   -0.14683223E-04    0.16088976E-01
   35   -0.24828073E+03   -0.12663310E-04    0.15124844E-01
   36   -0.24828074E+03   -0.10929878E-04    0.14217362E-01
   37   -0.24828075E+03   -0.94405421E-05    0.13363358E-01
   38   -0.24828076E+03   -0.81595560E-05    0.12559816E-01
   39   -0.24828077E+03   -0.70566932E-05    0.11803872E-01
   40   -0.24828077E+03   -0.61063361E-05    0.11092807E-01
>> Charges saved for restart in charges.dat
   41   -0.24828078E+03   -0.52867237E-05    0.10424045E-01
   42   -0.24828078E+03   -0.45793367E-05    0.97951424E-02
   43   -0.24828079E+03   -0.39683855E-05    0.92037898E-02
   44   -0.24828079E+03   -0.34403855E-05    0.86478011E-02
   45   -0.24828079E+03   -0.29838044E-05    0.81251098E-02
   46   -0.24828080E+03   -0.25887657E-05    0.76337637E-02
   47   -0.24828080E+03   -0.22468000E-05    0.71719193E-02
   48   -0.24828080E+03   -0.19506371E-05    0.67378363E-02
   49   -0.24828080E+03   -0.16940294E-05    0.63298759E-02
   50   -0.24828080E+03   -0.14716019E-05    0.59465023E-02
   51   -0.24828081E+03   -0.12787270E-05    0.55862375E-02
   52   -0.24828081E+03   -0.11114183E-05    0.52477059E-02
   53   -0.24828081E+03   -0.96623694E-06    0.49296115E-02
   54   -0.24828081E+03   -0.84021642E-06    0.46307334E-02
   55   -0.24828081E+03   -0.73079468E-06    0.43499217E-02
   56   -0.24828081E+03   -0.63575760E-06    0.40860940E-02
   57   -0.24828081E+03   -0.55319268E-06    0.38382312E-02
   58   -0.24828081E+03   -0.48144381E-06    0.36053742E-02
   59   -0.24828081E+03   -0.41907921E-06    0.33866206E-02
   60   -0.24828081E+03   -0.36485827E-06    0.31811213E-02
>> Charges saved for restart in charges.dat
   61   -0.24828081E+03   -0.31770793E-06    0.29880776E-02
   62   -0.24828081E+03   -0.27669645E-06    0.28067382E-02
   63   -0.24828081E+03   -0.24101769E-06    0.26363967E-02
   64   -0.24828081E+03   -0.20997220E-06    0.24763887E-02
   65   -0.24828081E+03   -0.18295322E-06    0.23260895E-02
   66   -0.24828081E+03   -0.15943414E-06    0.21849119E-02
   67   -0.24828081E+03   -0.13895803E-06    0.20523039E-02
   68   -0.24828081E+03   -0.12112812E-06    0.19277466E-02
   69   -0.24828081E+03   -0.10559975E-06    0.18107521E-02
   70   -0.24828081E+03   -0.92074487E-07    0.17008623E-02
   71   -0.24828081E+03   -0.80291358E-07    0.15976462E-02
   72   -0.24828081E+03   -0.70024555E-07    0.15006992E-02
   73   -0.24828081E+03   -0.61077856E-07    0.14096408E-02
   74   -0.24828081E+03   -0.53280417E-07    0.13241137E-02
   75   -0.24828081E+03   -0.46483791E-07    0.12437820E-02
   76   -0.24828081E+03   -0.40558461E-07    0.11683303E-02
   77   -0.24828081E+03   -0.35392475E-07    0.10974622E-02
   78   -0.24828081E+03   -0.30887435E-07    0.10308993E-02
   79   -0.24828081E+03   -0.26958872E-07    0.96837993E-03
   80   -0.24828081E+03   -0.23532294E-07    0.90965842E-03
>> Charges saved for restart in charges.dat
   81   -0.24828081E+03   -0.20543098E-07    0.85450395E-03
   82   -0.24828081E+03   -0.17935605E-07    0.80269972E-03
   83   -0.24828081E+03   -0.15660220E-07    0.75404207E-03
   84   -0.24828081E+03   -0.13675105E-07    0.70833971E-03
   85   -0.24828081E+03   -0.11942518E-07    0.66541298E-03
   86   -0.24828081E+03   -0.10430483E-07    0.62509311E-03
   87   -0.24828081E+03   -0.91108063E-08    0.58722161E-03
   88   -0.24828081E+03   -0.79583629E-08    0.55164961E-03
   89   -0.24828081E+03   -0.69527175E-08    0.51823728E-03
   90   -0.24828081E+03   -0.60744014E-08    0.48685333E-03
   91   -0.24828081E+03   -0.53076405E-08    0.45737440E-03
   92   -0.24828081E+03   -0.46379967E-08    0.42968469E-03
   93   -0.24828081E+03   -0.40530779E-08    0.40367539E-03
   94   -0.24828081E+03   -0.35421692E-08    0.37924435E-03
   95   -0.24828081E+03   -0.30960337E-08    0.35629562E-03
   96   -0.24828081E+03   -0.27062583E-08    0.33473909E-03
   97   -0.24828081E+03   -0.23658231E-08    0.31449012E-03
   98   -0.24828081E+03   -0.20683615E-08    0.29546925E-03
   99   -0.24828081E+03   -0.18081323E-08    0.27760182E-03
  100   -0.24828081E+03   -0.15811281E-08    0.26081774E-03
>> Charges saved for restart in charges.dat
  101   -0.24828081E+03   -0.13825456E-08    0.24505118E-03
  102   -0.24828081E+03   -0.12090879E-08    0.23024031E-03
  103   -0.24828081E+03   -0.10573729E-08    0.21632706E-03
  104   -0.24828081E+03   -0.92481400E-09    0.20325691E-03
  105   -0.24828081E+03   -0.80882501E-09    0.19097864E-03
  106   -0.24828081E+03   -0.70758688E-09    0.17944416E-03
  107   -0.24828081E+03   -0.61902483E-09    0.16860830E-03
  108   -0.24828081E+03   -0.54143356E-09    0.15842863E-03
  109   -0.24828081E+03   -0.47373305E-09    0.14886532E-03
  110   -0.24828081E+03   -0.41444537E-09    0.13988095E-03
  111   -0.24828081E+03   -0.36291681E-09    0.13144039E-03
  112   -0.24828081E+03   -0.31727154E-09    0.12351062E-03
  113   -0.24828081E+03   -0.27782221E-09    0.11606065E-03
  114   -0.24828081E+03   -0.24334668E-09    0.10906138E-03
  115   -0.24828081E+03   -0.21259439E-09    0.10248546E-03
  116   -0.24828081E+03   -0.18638957E-09    0.96307212E-04
  117   -0.24828081E+03   -0.16302693E-09    0.90502526E-04
  118   -0.24828081E+03   -0.14281909E-09    0.85048749E-04
  119   -0.24828081E+03   -0.12477130E-09    0.79924607E-04
  120   -0.24828081E+03   -0.10959411E-09    0.75110120E-04
>> Charges saved for restart in charges.dat
  121   -0.24828081E+03   -0.95752739E-10    0.70586520E-04
  122   -0.24828081E+03   -0.83900886E-10    0.66336183E-04
  123   -0.24828081E+03   -0.73384854E-10    0.62342553E-04
  124   -0.24828081E+03   -0.64261485E-10    0.58590080E-04
  125   -0.24828081E+03   -0.56644467E-10    0.55064159E-04
  126   -0.24828081E+03   -0.49084292E-10    0.51751071E-04
  127   -0.24828081E+03   -0.43200998E-10    0.48637932E-04
  128   -0.24828081E+03   -0.38056669E-10    0.45712637E-04
  129   -0.24828081E+03   -0.33111291E-10    0.42963820E-04
  130   -0.24828081E+03   -0.29160674E-10    0.40380801E-04
  131   -0.24828081E+03   -0.25465852E-10    0.37953550E-04
  132   -0.24828081E+03   -0.22367885E-10    0.35672645E-04
  133   -0.24828081E+03   -0.19383606E-10    0.33529236E-04
  134   -0.24828081E+03   -0.17195134E-10    0.31515009E-04
  135   -0.24828081E+03   -0.15006663E-10    0.29622154E-04
  136   -0.24828081E+03   -0.12988721E-10    0.27843335E-04
  137   -0.24828081E+03   -0.11766588E-10    0.26171662E-04
  138   -0.24828081E+03   -0.10032863E-10    0.24600661E-04
  139   -0.24828081E+03   -0.86970431E-11    0.23124250E-04
  140   -0.24828081E+03   -0.80433438E-11    0.21736717E-04
>> Charges saved for restart in charges.dat
  141   -0.24828081E+03   -0.64517280E-11    0.20432695E-04
  142   -0.24828081E+03   -0.62527761E-11    0.19207142E-04
  143   -0.24828081E+03   -0.51159077E-11    0.18055321E-04
  144   -0.24828081E+03   -0.46327386E-11    0.16972784E-04
  145   -0.24828081E+03   -0.40358827E-11    0.15955349E-04
  146   -0.24828081E+03   -0.36095571E-11    0.14999089E-04
  147   -0.24828081E+03   -0.29842795E-11    0.14100315E-04
  148   -0.24828081E+03   -0.27284841E-11    0.13255561E-04
  149   -0.24828081E+03   -0.22453150E-11    0.12461569E-04
  150   -0.24828081E+03   -0.23305802E-11    0.11715280E-04
  151   -0.24828081E+03   -0.17905677E-11    0.11013818E-04
  152   -0.24828081E+03   -0.16200374E-11    0.10354484E-04
  153   -0.24828081E+03   -0.13642421E-11    0.97347379E-05
>> Charges saved for restart in charges.dat

Total Energy:                     -239.2756999520 H        -6511.0231 eV
Extrapolated to 0K:               -239.2756999520 H        -6511.0231 eV
Total Mermin free energy:         -239.2756999520 H        -6511.0231 eV
Force related energy:             -239.2756999520 H        -6511.0231 eV


--------------------------------------------------------------------------------
DFTB+ running times                          cpu [s]             wall clock [s]
--------------------------------------------------------------------------------
Global initialisation                  +       0.00 (  0.0%)       0.03 (  0.1%)
Pre-SCC initialisation                 +       0.03 (  0.0%)       0.01 (  0.0%)
SCC                                    +     106.42 (100.0%)      39.10 ( 99.8%)
Post-geometry optimisation             +       0.00 (  0.0%)       0.03 (  0.1%)
--------------------------------------------------------------------------------
Missing                                +       0.00 (  0.0%)       0.00 (  0.0%)
Total                                  =     106.45 (100.0%)      39.17 (100.0%)
--------------------------------------------------------------------------------
