  162
Geometry Step: 7
    C      2.27815486      6.49126232     -0.00000000      3.99205683
    C      2.27784581      7.71818195      0.00000000      4.06814093
    C      1.04043401      1.75468408      0.00000000      3.93984065
    C      1.03860294      0.33207354      0.00000000      3.93981217
    C      2.26991560     -0.38037843      0.00000000      3.93984854
    C      3.50266024      0.32954429      0.00000000      3.93982159
    C      3.50437313      1.75200342     -0.00000000      3.93978837
    C      2.27324185      2.46446055      0.00000000      3.93980774
    C      2.27495380      3.89037848     -0.00000000      4.06813771
    C      2.27694603      5.11728750      0.00000000      3.99203775
    C      4.73701604     -0.38444727      0.00000000      4.06813301
    C      5.80081135     -0.99579252     -0.00000000      3.99204882
    C      6.99037616     -1.68360442      0.00000000      3.99203258
    C      8.05160323     -2.29947548     -0.00000000      4.06816076
    C      4.73994580      2.46407162      0.00000000      4.06812908
    C      5.80213727      3.07830142     -0.00000000      3.99204810
    C      6.99285668      3.76432157      0.00000000      3.99200875
    C      8.05688691      4.37542212     -0.00000000      4.06816638
    C      2.28780530     16.01528807     -0.00000000      3.99205027
    C      2.28749789     17.24220189      0.00000000      4.06814891
    C      1.05007201     11.27903940     -0.00000000      3.93982562
    C      1.04799542      9.85653275      0.00000000      3.93979957
    C      2.27931776      9.14413184     -0.00000000      3.93987235
    C      3.51227194      9.85371094     -0.00000000      3.93981278
    C      3.51406946     11.27612999     -0.00000000      3.93977470
    C      2.28295596     11.98858783      0.00000000      3.93982321
    C      2.28463791     13.41444187      0.00000000      4.06812965
    C      2.28659963     14.64132968     -0.00000000      3.99205445
    C      4.74658555      9.13954709     -0.00000000      4.06814705
    C      5.81041363      8.52824225      0.00000000      3.99203109
    C      6.99997528      7.84045288     -0.00000000      3.99204670
    C      8.06123747      7.22470323      0.00000000      4.06813597
    C      4.74962723     11.98813522      0.00000000      4.06812606
    C      5.81181737     12.60233506     -0.00000000      3.99204606
    C      7.00252019     13.28834219      0.00000000      3.99201063
    C      8.06654405     13.89944199     -0.00000000      4.06816121
    C      2.29743345     25.53973422     -0.00000000      3.99203867
    C      2.29692596     26.76669550      0.00000000      4.06814966
    C      1.05973569     20.80307814      0.00000000      3.93982637
    C      1.05765189     19.38055331      0.00000000      3.93980374
    C      2.28897162     18.66814929      0.00000000      3.93986369
    C      3.52192032     19.37773035     -0.00000000      3.93981330
    C      3.52370027     20.80016335     -0.00000000      3.93977248
    C      2.29260613     21.51271920      0.00000000      3.93982674
    C      2.29429178     22.93870987      0.00000000      4.06813995
    C      2.29628397     24.16566128      0.00000000      3.99205030
    C      4.75623679     18.66356564      0.00000000      4.06814644
    C      5.82006568     18.05225970     -0.00000000      3.99202996
    C      7.00962692     17.36447069      0.00000000      3.99204850
    C      8.07088861     16.74871957     -0.00000000      4.06813591
    C      4.75926710     21.51214008      0.00000000      4.06813105
    C      5.82148498     22.12629004      0.00000000      3.99204387
    C      7.01213191     22.81239242     -0.00000000      3.99202630
    C      8.07591680     23.42387355     -0.00000000      4.06814684
    C     10.52312346      1.72171473     -0.00000000      3.99205591
    C     10.52279024      2.94863393      0.00000000      4.06814269
    C      9.28526836     -3.01487034      0.00000000      3.93982721
    C      9.28347807     -4.43746387     -0.00000000      3.93981228
    C     10.51478738     -5.14992829      0.00000000      3.93984518
    C     11.74753280     -4.44001193     -0.00000000      3.93982106
    C     11.74924347     -3.01754592     -0.00000000      3.93978975
    C     10.51807515     -2.30513688     -0.00000000      3.93981093
    C     10.51987098     -0.87919675      0.00000000      4.06814080
    C     10.52191248      0.34771634     -0.00000000      3.99204152
    C     12.98193138     -5.15399634      0.00000000      4.06813923
    C     14.04574953     -5.76532574     -0.00000000      3.99204610
    C     15.23533528     -6.45314582     -0.00000000      3.99203482
    C     16.29656594     -7.06902168      0.00000000      4.06816105
    C     12.98486298     -2.30547500      0.00000000      4.06813456
    C     14.04708009     -1.69126022     -0.00000000      3.99204357
    C     15.23781646     -1.00523368      0.00000000      3.99201072
    C     16.30184814     -0.39412904     -0.00000000      4.06816515
    C     10.53277388     11.24574033      0.00000000      3.99204941
    C     10.53244283     12.47265472     -0.00000000      4.06815056
    C      9.29490566      6.50948698     -0.00000000      3.93981196
    C      9.29287553      5.08699765     -0.00000000      3.93979938
    C     10.52419148      4.37458257      0.00000000      3.93986885
    C     11.75714603      5.08415522     -0.00000000      3.93981227
    C     11.75893974      6.50658112      0.00000000      3.93977634
    C     10.52778927      7.21899073     -0.00000000      3.93982636
    C     10.52955563      8.64486648     -0.00000000      4.06813280
    C     10.53156597      9.87175895      0.00000000      3.99205827
    C     12.99150124      4.36999770      0.00000000      4.06815306
    C     14.05535136      3.75870937      0.00000000      3.99202839
    C     15.24493420      3.07091147      0.00000000      3.99204895
    C     16.30619988      2.45515727     -0.00000000      4.06813648
    C     12.99454488      7.21858847      0.00000000      4.06813136
    C     14.05675948      7.83277205     -0.00000000      3.99204158
    C     15.24748048      8.51878641      0.00000000      3.99201286
    C     16.31150596      9.12989027     -0.00000000      4.06816015
    C     10.54240253     20.77018683      0.00000000      3.99203796
    C     10.54187124     21.99714812     -0.00000000      4.06815132
    C      9.30457073     16.03352536     -0.00000000      3.93981270
    C      9.30253201     14.61101793      0.00000000      3.93980371
    C     10.53384554     13.89859990     -0.00000000      3.93986008
    C     11.76679427     14.60817544      0.00000000      3.93981294
    C     11.76857030     16.03061466      0.00000000      3.93977374
    C     10.53744006     16.74312171      0.00000000      3.93982962
    C     10.53920935     18.16913434      0.00000000      4.06814326
    C     10.54125066     19.39609043     -0.00000000      3.99205409
    C     13.00115314     13.89401631     -0.00000000      4.06815261
    C     14.06500337     13.28272711      0.00000000      3.99202723
    C     15.25458662     12.59492871      0.00000000      3.99205091
    C     16.31585117     11.97917363     -0.00000000      4.06813605
    C     13.00418439     16.74259370     -0.00000000      4.06813663
    C     14.06642716     17.35672851      0.00000000      3.99203932
    C     15.25709136     18.04283760      0.00000000      3.99202836
    C     16.32087841     18.65432198     -0.00000000      4.06814587
    C     18.76809194     -3.04783431     -0.00000000      3.99205641
    C     18.76775796     -1.82091533      0.00000000      4.06814181
    C     17.53023314     -7.78441864     -0.00000000      3.93982906
    C     17.52844071     -9.20701248     -0.00000000      3.93981380
    C     18.75974059     -9.91948002      0.00000000      3.93984476
    C     19.99245888     -9.20955399     -0.00000000      3.93981810
    C     19.99414071     -7.78712004     -0.00000000      3.93978762
    C     18.76302630     -7.07468261      0.00000000      3.93980663
    C     18.76483953     -5.64874542      0.00000000      4.06814125
    C     18.76688115     -4.42183324     -0.00000000      3.99203985
    C     21.22683499     -9.92350733     -0.00000000      4.06813520
    C     22.29065151    -10.53482156      0.00000000      3.99205003
    C     23.48022190    -11.22266333      0.00000000      3.99203762
    C     24.54137634    -11.83861870     -0.00000000      4.06815402
    C     21.22972991     -7.07508499     -0.00000000      4.06812547
    C     22.29194900     -6.46087245      0.00000000      3.99205579
    C     23.48270817     -5.77481880      0.00000000      3.99201421
    C     24.54672059     -5.16366192     -0.00000000      4.06815544
    C     18.77774117      6.47619217     -0.00000000      3.99205003
    C     18.77741030      7.70310575      0.00000000      4.06814927
    C     17.53987093      1.73993862      0.00000000      3.93981372
    C     17.53783780      0.31744872     -0.00000000      3.93980097
    C     18.76914542     -0.39496831      0.00000000      3.93986869
    C     20.00207276      0.31461351      0.00000000      3.93980869
    C     20.00383762      1.73700656      0.00000000      3.93977428
    C     18.77274010      2.44944450     -0.00000000      3.93982206
    C     18.77452356      3.87531801     -0.00000000      4.06813336
    C     18.77653367      5.10220973      0.00000000      3.99205662
    C     21.23640416     -0.39951276     -0.00000000      4.06814929
    C     22.30025498     -1.01078745      0.00000000      3.99203231
    C     23.48982082     -1.69860579     -0.00000000      3.99205171
    C     24.55101096     -2.31444096      0.00000000      4.06812964
    C     21.23941157      2.44897902     -0.00000000      4.06812238
    C     22.30162889      3.06316111      0.00000000      3.99205361
    C     23.49237095      3.74920161     -0.00000000      3.99201634
    C     24.55637869      4.36035812     -0.00000000      4.06815037
    C     18.78736969     16.00063724      0.00000000      3.99203851
    C     18.78683869     17.22759908     -0.00000000      4.06815030
    C     17.54953565     11.26397721      0.00000000      3.93981477
    C     17.54749487      9.84146890      0.00000000      3.93980509
    C     18.77879851      9.12904814      0.00000000      3.93985978
    C     20.01172094      9.83863327      0.00000000      3.93980976
    C     20.01346942     11.26104155      0.00000000      3.93977190
    C     18.78239126     11.97357666     -0.00000000      3.93982532
    C     18.78417733     13.39958578     -0.00000000      4.06814342
    C     18.78621828     14.62654088      0.00000000      3.99205247
    C     21.24605589      9.12450543     -0.00000000      4.06814875
    C     22.30990767      8.51322975      0.00000000      3.99203114
    C     23.49947286      7.82541160     -0.00000000      3.99205362
    C     24.56066248      7.20957540      0.00000000      4.06812914
    C     21.24905556     11.97298595     -0.00000000      4.06812854
    C     22.31130093     12.58711830      0.00000000      3.99205026
    C     23.50198275     13.27325284      0.00000000      3.99203189
    C     24.56575868     13.88478422     -0.00000000      4.06813716
