  144
Geometry Step: 6
    C      0.28490510      1.90464208      0.24027916      3.94040859
    C      0.28555449      0.48205542      0.24038208      3.94044938
    C      1.51760523     -0.22920734      0.23988423      3.94044143
    C      2.74959491      0.48216937      0.24015577      3.94047300
    C      2.74887978      1.90492544      0.24040602      3.94054315
    C      1.51677244      2.61624041      0.24000642      3.94047615
    C      3.98464291     -0.23138539      0.24019662      4.06528523
    C      5.04720416     -0.85058430      0.23997719      3.99338615
    C      6.23094878     -1.53725951      0.23985280      3.99878081
    C      7.30097905     -2.15836959      0.23975300      4.00158540
    C      8.48109773     -2.84068846      0.23981228      4.00048916
    C      9.55437323     -3.45973335      0.23999389      4.00049990
    C     10.73555787     -4.14026673      0.24026641      4.00158556
    C     11.80820723     -4.75685269      0.24061872      3.99878181
    C     12.99508986     -5.43802142      0.24098621      3.99338901
    C     14.06367483     -6.04667954      0.24136533      4.06527088
    C      3.98373937      2.61814439      0.24123327      4.06524171
    C      5.04913206      3.23216915      0.24249414      3.99343883
    C      6.23413914      3.91615261      0.24350257      3.99876282
    C      7.30549972      4.53470263      0.24436310      4.00160475
    C      8.48544973      5.21691546      0.24478604      4.00049340
    C      9.55756284      5.83775110      0.24476185      4.00050765
    C     10.73724235      6.52044669      0.24441015      4.00159042
    C     11.80794096      7.14014923      0.24365652      3.99877850
    C     12.99263139      7.82470969      0.24292793      3.99342719
    C     14.05783851      8.43904736      0.24205369      4.06525217
    C      1.51520458      4.04242970      0.23949580      4.06526702
    C      1.50505468      5.27214082      0.23857741      3.99340107
    C      1.49866706      6.64054017      0.23788077      3.99878181
    C      1.49155700      7.87771574      0.23728113      4.00158910
    C      1.48888995      9.24085230      0.23700895      4.00050354
    C      1.48953630     10.47980260      0.23703504      4.00048829
    C      1.49188283     11.84287772      0.23732130      4.00159429
    C      1.49666300     13.08001895      0.23790540      3.99876948
    C      1.50123844     14.44833976      0.23853584      3.99341116
    C      1.50868305     15.67802309      0.23933205      4.06525442
    C      0.27727945     19.23796977      0.24009098      3.94040784
    C      0.27792186     17.81539900      0.24029175      3.94045063
    C      1.50999628     17.10416189      0.23979210      3.94045271
    C      2.74200886     17.81549156      0.23996803      3.94046709
    C      2.74124521     19.23822725      0.24020740      3.94054192
    C      1.50914593     19.94953543      0.23980744      3.94047681
    C      3.97700551     17.10187728      0.24001820      4.06528172
    C      5.03955465     16.48267000      0.23979579      3.99338386
    C      6.22329217     15.79599396      0.23967201      3.99878212
    C      7.29332171     15.17488622      0.23957196      4.00158314
    C      8.47344016     14.49256690      0.23963128      4.00048985
    C      9.54671694     13.87352191      0.23981289      4.00049842
    C     10.72790130     13.19298812      0.24008537      4.00158521
    C     11.80054984     12.57640141      0.24043793      3.99878128
    C     12.98743478     11.89523494      0.24080481      3.99338976
    C     14.05601807     11.28658109      0.24118691      4.06526955
    C      3.97609162     19.95141681      0.24105176      4.06524035
    C      5.04148097     20.56542825      0.24231332      3.99344231
    C      6.22648376     21.24940860      0.24332207      3.99876231
    C      7.29784182     21.86795765      0.24418197      4.00160365
    C      8.47779782     22.55017419      0.24460531      4.00049478
    C      9.54993076     23.17102083      0.24458168      4.00051072
    C     10.72963661     23.85373064      0.24422801      4.00159336
    C     11.80034536     24.47343341      0.24345651      3.99877614
    C     12.98503092     25.15800134      0.24275809      3.99342321
    C     14.05021191     25.77237429      0.24194585      4.06526009
    C      1.50755717     21.37570162      0.23931374      4.06526342
    C      1.49739812     22.60540370      0.23839645      3.99340504
    C      1.49101015     23.97379854      0.23770020      3.99878000
    C      1.48390087     25.21096999      0.23710004      4.00158888
    C      1.48123400     26.57410700      0.23682822      4.00050190
    C      1.48187983     27.81307264      0.23685489      4.00049181
    C      1.48422551     29.17617295      0.23713922      4.00159220
    C      1.48900067     30.41333068      0.23770547      3.99877187
    C      1.49358812     31.78168340      0.23836611      3.99341087
    C      1.50108291     33.01138295      0.23922415      4.06525125
    C     15.29963414     -6.75843516      0.24166479      3.94039877
    C     15.30032664     -8.18103104      0.24177023      3.94044812
    C     16.53240431     -8.89233656      0.24162885      3.94044646
    C     17.76444198     -8.18098513      0.24200172      3.94046861
    C     17.76372464     -6.75821925      0.24225200      3.94054628
    C     16.53157215     -6.04691944      0.24175022      3.94048366
    C     18.99951459     -8.89453469      0.24197493      4.06528903
    C     20.06208057     -9.51373280      0.24174025      3.99337939
    C     21.24582631    -10.20040900      0.24161190      3.99878447
    C     22.31585891    -10.82152029      0.24151554      4.00158328
    C     23.49598093    -11.50384186      0.24157317      4.00049443
    C     24.56924836    -12.12288229      0.24175586      4.00049455
    C     25.75040820    -12.80340174      0.24203710      4.00159059
    C     26.82303645    -13.41997571      0.24246145      3.99877390
    C     28.00986925    -14.10111878      0.24269517      3.99340241
    C     29.07843242    -14.70976070      0.24280341      4.06525570
    C     18.99861001     -6.04500426      0.24301188      4.06524175
    C     20.06400742     -5.43097970      0.24425678      3.99343539
    C     21.24901629     -4.74699532      0.24526149      3.99876303
    C     22.32038006     -4.12844352      0.24612552      4.00160567
    C     23.50033192     -3.44622962      0.24654700      4.00049421
    C     24.57243646     -2.82539775      0.24652380      4.00050475
    C     25.75209393     -2.14271626      0.24618083      4.00158779
    C     26.82279057     -1.52302465      0.24549939      3.99878112
    C     28.00746809     -0.83845438      0.24463713      3.99343059
    C     29.07263573     -0.22407002      0.24349195      4.06524229
    C     16.53008353     -4.62072127      0.24125815      4.06526872
    C     16.51992960     -3.39100661      0.24034420      3.99340418
    C     16.51354259     -2.02260746      0.23964080      3.99877934
    C     16.50643279     -0.78543175      0.23904412      4.00159152
    C     16.50376531      0.57770278      0.23877150      4.00050198
    C     16.50441215      1.81665427      0.23879809      4.00049045
    C     16.50675815      3.17972729      0.23908439      4.00159254
    C     16.51153952      4.41686873      0.23966564      3.99877139
    C     16.51611309      5.78518932      0.24030272      3.99340821
    C     16.52355611      7.01487817      0.24109482      4.06525926
    C     15.29200810     10.57489254      0.24147686      3.94039846
    C     15.29269401      9.15231180      0.24167753      3.94044908
    C     16.52479478      8.44103277      0.24153623      3.94045772
    C     17.75685558      9.15233716      0.24181389      3.94046268
    C     17.75608961     10.57508211      0.24205314      3.94054477
    C     16.52394603     11.28637550      0.24155129      3.94048433
    C     18.99187678      8.43872803      0.24179653      4.06528550
    C     20.05443071      7.81952119      0.24155885      3.99337700
    C     21.23816952      7.13284453      0.24143111      3.99878597
    C     22.30820197      6.51173456      0.24133450      4.00158097
    C     23.48832296      5.82941356      0.24139217      4.00049500
    C     24.56159185      5.21037287      0.24157486      4.00049302
    C     25.74275115      4.52985392      0.24185606      4.00159028
    C     26.81537979      3.91327896      0.24228068      3.99877355
    C     28.00221481      3.23213826      0.24251374      3.99340293
    C     29.07077563      2.62350012      0.24262501      4.06525465
    C     18.99096228     11.28826822      0.24282999      4.06524070
    C     20.05635682     11.90227917      0.24407638      3.99343893
    C     21.24136125     12.58626040      0.24508117      3.99876226
    C     22.31272130     13.20481102      0.24594452      4.00160463
    C     23.49267976     13.88702935      0.24636619      4.00049572
    C     24.56480379     14.50787236      0.24634362      4.00050787
    C     25.74448784     15.19056813      0.24599868      4.00159055
    C     26.81519354     15.81025955      0.24529942      3.99877856
    C     27.99986722     16.49483704      0.24446723      3.99342733
    C     29.06500989     17.10925884      0.24338523      4.06524976
    C     16.52243611     12.71255141      0.24107613      4.06526530
    C     16.51227364     13.94225659      0.24016324      3.99340796
    C     16.50588608     15.31065086      0.23946022      3.99877748
    C     16.49877665     16.54782231      0.23886302      4.00159139
    C     16.49610925     17.91095761      0.23859078      4.00050034
    C     16.49675479     19.14992428      0.23861793      4.00049396
    C     16.49910050     20.51302267      0.23890231      4.00159043
    C     16.50387624     21.75018055      0.23946571      3.99877384
    C     16.50846295     23.11853319      0.24013298      3.99340790
    C     16.51595630     24.34823790      0.24098692      4.06525598
