   12
Geometry Step: 19
    C      0.00077883      1.42057862      0.00689911      3.93802184
    C      0.00102584      0.00173039      0.00644874      3.93805018
    C      1.23001684     -0.70744410      0.00733914      3.93810590
    C      2.45911329      0.00151729      0.00876863      3.93802014
    C      2.45887397      1.42043151      0.00932182      3.93805538
    C      1.22981628      2.12966677      0.00834294      3.93809829
    C      1.22952714      3.56187634      0.00882703      4.06197125
    C      1.22916700      4.78083882      0.00925685      4.06197145
    C      3.69926415      2.13663809      0.01079120      4.06194310
    C      4.75551528      2.74514675      0.01190256      4.06192848
    C      3.69945324     -0.71510620      0.00963482      4.06192855
    C      4.75566559     -1.32380773      0.01031680      4.06190545
