   48
Geometry Step: 0
    C      6.01873600      4.89203800      0.01872600      3.93248739
    C      6.01895900      3.47657100      0.01676600      3.93219742
    C      7.24495300      2.76908700      0.01417900      3.93225111
    C      8.47056100      3.47725200      0.01345200      3.93229164
    C      8.47039200      4.89273800      0.01537600      3.93236829
    C      7.24437500      5.60012900      0.01809300      3.93237568
    C      7.24391200      6.99449700      0.01959800      4.06741864
    C      7.24365100      8.32418400      0.02060400      4.06788609
    C      9.67788900      5.59012200      0.01421300      4.06778388
    C     10.82946300      6.25500500      0.01320300      4.06731640
    C      9.67837600      2.78055900      0.01039800      4.06675288
    C     10.83025600      2.11636900      0.00763400      4.06917602
    C      0.00000200      8.36572500      0.01189400      3.93296085
    C      0.00024600      6.95021600      0.01048100      3.93166157
    C      1.22610900      6.24247800      0.01443300      3.93325215
    C      2.45172100      6.95067200      0.01895300      3.93192932
    C      2.45145500      8.36618700      0.02042600      3.93271793
    C      1.22558900      9.07392900      0.01736200      3.93122156
    C      1.22522300     10.46838300      0.01854300      4.06811441
    C      1.22477800     11.79815500      0.01916400      4.06731446
    C      3.65886900      9.06363700      0.02346200      4.06715625
    C      4.81022800      9.72880700      0.02424700      4.06848539
    C      3.65944000      6.25372700      0.02062000      4.06780677
    C      4.81105700      5.58901000      0.02044800      4.06750350
    C      6.02004900     -2.05782600      0.01013500      3.93232119
    C      6.02033900     -3.47338100      0.01129500      3.93225231
    C      7.24619200     -4.18124000      0.01142300      3.93209157
    C      8.47144700     -3.47234000      0.00842100      3.93243701
    C      8.47163100     -2.05679200      0.00727400      3.93228376
    C      7.24555200     -1.34943100      0.00894200      3.93235288
    C      7.24511900      0.04497100      0.00980000      4.06760323
    C      7.24509700      1.37468900      0.01178500      4.06773546
    C      9.67919400     -1.35930100      0.00507200      4.06820409
    C     10.83055400     -0.69383800      0.00376900      4.06677421
    C      9.67944600     -4.16857500      0.00755800      4.06655704
    C     10.83172200     -4.83188700      0.00840700      4.06956057
    C      0.00123300      1.41547800      0.00202300      3.93279053
    C      0.00084800      0.00000000      0.00000000      3.93160047
    C      1.22713700     -0.70695800      0.00387800      3.93323060
    C      2.45291600      0.00089400      0.00836600      3.93195107
    C      2.45280100      1.41638300      0.01068100      3.93259035
    C      1.22674600      2.12380300      0.00816600      3.93125001
    C      1.22637200      3.51826300      0.01076500      4.06820126
    C      1.22628000      4.84803100      0.01275100      4.06708408
    C      3.66017600      2.11391200      0.01448300      4.06763722
    C      4.81152200      2.77913900      0.01645200      4.06774574
    C      3.66056600     -0.69625100      0.00992700      4.06778486
    C      4.81221600     -1.36099600      0.01035800      4.06753087
   48
Geometry Step: 1
    C      6.02665184      4.88745797      0.01871826      3.93536892
    C      6.02696577      3.48117169      0.01677311      3.93511030
    C      7.24493265      2.77830037      0.01418549      3.93495164
    C      8.46263752      3.48191463      0.01343234      3.93467706
    C      8.46238222      4.88821817      0.01544657      3.93519933
    C      7.24436781      5.59093762      0.01813433      3.93470219
    C      7.24392544      7.06095938      0.01960512      4.06141707
    C      7.24375827      8.25796334      0.02055701      4.07195619
    C      9.73545566      5.62326309      0.01409649      4.05946960
    C     10.77160920      6.22129636      0.01318296      4.07340904
    C      9.73600510      2.74722221      0.01029432      4.05770146
    C     10.77436698      2.14830709      0.00773799      4.07974791
    C      0.00676618      8.36247965      0.01189688      3.93380062
    C      0.00870653      6.95579888      0.01047774      3.93231558
    C      1.22606403      6.25158604      0.01443633      3.93274028
    C      2.44376200      6.95526529      0.01894443      3.93403288
    C      2.44349748      8.36156983      0.02047472      3.93466594
    C      1.22547139      9.06462092      0.01743448      3.93261331
    C      1.22523634     10.53488302      0.01849598      4.06045534
    C      1.22487568     11.73200176      0.01908216      4.07247763
    C      3.71649504      9.09691867      0.02345790      4.06526496
    C      4.75338944      9.69596312      0.02417439      4.06450333
    C      3.71695164      6.22053994      0.02062963      4.06600972
    C      4.75354546      5.62219949      0.02046711      4.06378397
    C      6.02791690     -2.06248330      0.01008691      3.93496623
    C      6.02769049     -3.46910950      0.01144087      3.93349284
    C      7.24600364     -4.17213812      0.01146915      3.93527507
    C      8.46355320     -3.46775384      0.00841605      3.93386068
    C      8.46358456     -2.06129433      0.00722566      3.93523690
    C      7.24559779     -1.35863499      0.00888808      3.93421618
    C      7.24510385      0.11142284      0.00988691      4.06526808
    C      7.24511126      1.30822399      0.01169041      4.06441258
    C      9.73669822     -1.32618910      0.00504845      4.06005046
    C     10.77208776     -0.72793052      0.00379736      4.07322352
    C      9.73710310     -4.20191269      0.00755878      4.05686841
    C     10.77600391     -4.80013797      0.00833646      4.08056016
    C      0.00773786      1.41232663      0.00206189      3.93357345
    C      0.00883125      0.00540519      0.00018187      3.93030606
    C      1.22696155     -0.69820047      0.00400028      3.93339443
    C      2.44494421      0.00540699      0.00826404      3.93309522
    C      2.44482519      1.41178044      0.01057762      3.93468185
    C      1.22670437      2.11446733      0.00806295      3.93218682
    C      1.22635994      3.58475014      0.01089333      4.06421994
    C      1.22628644      4.78159017      0.01265166      4.06493794
    C      3.71774746      2.14716945      0.01461205      4.06605528
    C      4.75394706      2.74587350      0.01636353      4.06406701
    C      3.71807914     -0.72944471      0.00999682      4.06523627
    C      4.75469620     -1.32780164      0.01035911      4.06444035
   48
Geometry Step: 2
    C      6.01969554      4.89148763      0.01873398      3.93531313
    C      6.02010394      3.47719938      0.01677541      3.93569222
    C      7.24496629      2.77034086      0.01416050      3.93554159
    C      8.46951825      3.47796996      0.01338249      3.93469596
    C      8.46908783      4.89227926      0.01549461      3.93467178
    C      7.24450958      5.59880796      0.01818818      3.93546119
    C      7.24389344      7.05333630      0.01958351      4.06722318
    C      7.24289801      8.27269696      0.02033836      4.05982059
    C      9.72848220      5.61916053      0.01408597      4.06845130
    C     10.78577734      6.22784841      0.01279930      4.05964918
    C      9.73082107      2.75020239      0.01032598      4.07370993
    C     10.79091248      2.13860308      0.00783701      4.05073838
    C     -0.00773398      8.37133256      0.01182495      3.93492303
    C     -0.00618626      6.95291807      0.01034418      3.93891175
    C      1.22433503      6.24297351      0.01440596      3.93768096
    C      2.45059789      6.95149532      0.01896104      3.93601687
    C      2.45045870      8.36512302      0.02055417      3.93534076
    C      1.22393977      9.07302085      0.01750182      3.93842985
    C      1.22529669     10.52750357      0.01846313      4.06787685
    C      1.22393933     11.74652332      0.01865791      4.05919237
    C      3.70971016      9.09312546      0.02342838      4.06248476
    C      4.75935340      9.70168617      0.02387473      4.06771700
    C      3.70967882      6.22467713      0.02062485      4.06360840
    C      4.76073290      5.61803927      0.02045550      4.06519115
    C      6.02029734     -2.05883252      0.01005430      3.93517526
    C      6.02177899     -3.47586370      0.01182065      3.93769585
    C      7.24748991     -4.18490395      0.01168706      3.93388330
    C      8.47015493     -3.47222060      0.00838989      3.93570626
    C      8.47009689     -2.05700669      0.00715352      3.93421268
    C      7.24562842     -1.35084761      0.00882777      3.93605650
    C      7.24506250      0.10310347      0.00987401      4.06432375
    C      7.24511561      1.31652566      0.01171089      4.06465185
    C      9.72933588     -1.33063571      0.00509071      4.06977234
    C     10.78755705     -0.72299657      0.00392919      4.05661718
    C      9.73212014     -4.19902577      0.00757074      4.07437058
    C     10.79246321     -4.80993767      0.00813284      4.05014015
    C     -0.00743666      1.42095396      0.00224866      3.93477997
    C     -0.00478993     -0.00017053      0.00069579      3.94087069
    C      1.22662411     -0.71183668      0.00444063      3.93615188
    C      2.45144095      0.00111580      0.00817575      3.93698053
    C      2.45159436      1.41555149      0.01048643      3.93491946
    C      1.22504900      2.12278572      0.00797346      3.93913369
    C      1.22641977      3.57663411      0.01090411      4.06486402
    C      1.22622576      4.78973771      0.01265618      4.06413747
    C      3.71051506      2.14302294      0.01460647      4.06358822
    C      4.76112229      2.75001981      0.01636175      4.06477326
    C      3.71091155     -0.72532213      0.01003352      4.06435129
    C      4.76184529     -1.33197117      0.01037981      4.06450159
   48
Geometry Step: 3
    C      6.01470817      4.89437196      0.01874773      3.93625820
    C      6.01484818      3.47421965      0.01677770      3.93615163
    C      7.24497253      2.76437808      0.01413746      3.93581966
    C      8.47545478      3.47449811      0.01333814      3.93764580
    C      8.47472742      4.89522770      0.01554025      3.93648776
    C      7.24406442      5.60521996      0.01823842      3.93633919
    C      7.24398999      7.04782581      0.01956930      4.06484147
    C      7.24408764      8.27327866      0.02016822      4.06202682
    C      9.72400852      5.61664124      0.01407749      4.06255402
    C     10.78673234      6.22883345      0.01247470      4.06466309
    C      9.72809436      2.75176165      0.01034113      4.05924522
    C     10.77778848      2.14609960      0.00788597      4.07079350
    C      0.00165670      8.36573819      0.01182185      3.93565243
    C     -0.00242081      6.95181989      0.01028816      3.93464169
    C      1.22444345      6.23900678      0.01438216      3.93525888
    C      2.45501489      6.94785963      0.01897264      3.93614977
    C      2.45488254      8.36888540      0.02062074      3.93608267
    C      1.22467168      9.07903668      0.01756609      3.93455768
    C      1.22542263     10.52142172      0.01843896      4.06455983
    C      1.22495330     11.74754145      0.01830963      4.06207899
    C      3.70150528      9.08833700      0.02339911      4.06701733
    C      4.77130402      9.70760229      0.02355871      4.05897576
    C      3.70169776      6.22928546      0.02061946      4.06414211
    C      4.76866213      5.61346262      0.02044262      4.06315460
    C      6.01576708     -2.05696064      0.01003633      3.93755365
    C      6.01349569     -3.47826947      0.01218686      3.93562670
    C      7.24539105     -4.18620816      0.01185883      3.93736156
    C      8.47641618     -3.47597703      0.00838138      3.93772939
    C      8.47562586     -2.05465665      0.00708918      3.93720830
    C      7.24506220     -1.34486610      0.00876565      3.93574428
    C      7.24505814      0.09363242      0.00985606      4.06349429
    C      7.24513525      1.32596864      0.01173268      4.06373265
    C      9.72466334     -1.33325407      0.00512194      4.05974528
    C     10.78412498     -0.72377733      0.00400957      4.06941245
    C      9.72928802     -4.19739475      0.00758764      4.05896525
    C     10.77936623     -4.80262965      0.00799003      4.07126393
    C      0.00246002      1.41442710      0.00239475      3.93702692
    C     -0.00471365     -0.00125265      0.00115238      3.93413725
    C      1.22460176     -0.71123544      0.00478250      3.93693722
    C      2.45612629     -0.00279684      0.00810092      3.93617504
    C      2.45585916      1.41867262      0.01037724      3.93680876
    C      1.22566828      2.12838775      0.00787704      3.93398730
    C      1.22646035      3.56664471      0.01090896      4.06312157
    C      1.22608500      4.79968932      0.01266246      4.06383958
    C      3.70208934      2.13814381      0.01459239      4.06410449
    C      4.76946986      2.75483522      0.01636062      4.06348830
    C      3.70280019     -0.72060696      0.01006663      4.06390598
    C      4.76981115     -1.33663569      0.01039735      4.06353175
   48
Geometry Step: 4
    C      6.01533232      4.89413882      0.01875175      3.93657331
    C      6.01562759      3.47463858      0.01677948      3.93634491
    C      7.24532416      2.76526323      0.01413000      3.93677858
    C      8.47567642      3.47442200      0.01332483      3.93615959
    C      8.47459518      4.89500672      0.01556574      3.93708773
    C      7.24436455      5.60502980      0.01826032      3.93659043
    C      7.24395971      7.05138832      0.01956498      4.06298010
    C      7.24398474      8.26671594      0.02008900      4.06414459
    C      9.72779473      5.61881551      0.01406050      4.06357488
    C     10.78246324      6.22631263      0.01230137      4.06290296
    C      9.72494970      2.75359808      0.01035429      4.06227579
    C     10.78240379      2.14384927      0.00792124      4.06568611
    C     -0.00125940      8.36704033      0.01181333      3.93638331
    C     -0.00393289      6.94956458      0.01025601      3.93549442
    C      1.22447597      6.23974700      0.01436675      3.93677566
    C      2.45438354      6.94836782      0.01897417      3.93636189
    C      2.45434968      8.36869451      0.02064623      3.93714800
    C      1.22526234      9.07906917      0.01759357      3.93612557
    C      1.22531816     10.52541702      0.01842377      4.06277223
    C      1.22473373     11.74076497      0.01812994      4.06441149
    C      3.70895761      9.09264838      0.02338770      4.06326717
    C      4.76049083      9.70094254      0.02344062      4.06393175
    C      3.70764184      6.22580311      0.02061827      4.06356597
    C      4.76258425      5.61696164      0.02043898      4.06338049
    C      6.01651963     -2.05706902      0.01003856      3.93642542
    C      6.01717361     -3.47546734      0.01232489      3.93614736
    C      7.24599710     -4.18349533      0.01192986      3.93665695
    C      8.47646777     -3.47565932      0.00838654      3.93610681
    C      8.47548315     -2.05530924      0.00706255      3.93680338
    C      7.24515006     -1.34589138      0.00872832      3.93660270
    C      7.24501698      0.10094436      0.00985884      4.06357558
    C      7.24512588      1.31859123      0.01172541      4.06345563
    C      9.72687800     -1.33197885      0.00513565      4.06364887
    C     10.78407831     -0.72351614      0.00406907      4.06302843
    C      9.72618141     -4.19564193      0.00759098      4.06221947
    C     10.78404899     -4.80502200      0.00785450      4.06587899
    C     -0.00028320      1.41571302      0.00253870      3.93636894
    C     -0.00374319     -0.00128050      0.00141984      3.93526622
    C      1.22483842     -0.70867832      0.00495296      3.93685774
    C      2.45528762     -0.00189905      0.00806360      3.93620144
    C      2.45530674      1.41802446      0.01029993      3.93683268
    C      1.22602982      2.12760107      0.00782074      3.93611260
    C      1.22635404      3.57443522      0.01092880      4.06328952
    C      1.22596221      4.79214397      0.01264776      4.06372653
    C      3.70847124      2.14184364      0.01460179      4.06367497
    C      4.76290448      2.75104074      0.01634372      4.06341469
    C      3.70877514     -0.72415770      0.01008742      4.06355490
    C      4.76384089     -1.33323828      0.01040276      4.06343326
   48
Geometry Step: 5
    C      6.01529063      4.89436596      0.01876032      3.93660165
    C      6.01558317      3.47452274      0.01678201      3.93654090
    C      7.24535553      2.76501257      0.01411663      3.93639592
    C      8.47449192      3.47545423      0.01330905      3.93665513
    C      8.47467587      4.89518436      0.01560174      3.93652930
    C      7.24466566      5.60479605      0.01829280      3.93632244
    C      7.24397468      7.04976131      0.01955530      4.06482960
    C      7.24416479      8.26877136      0.01994852      4.06131054
    C      9.72762065      5.61870061      0.01404546      4.06429221
    C     10.78098210      6.22530469      0.01201986      4.06229267
    C      9.72889448      2.75128371      0.01035610      4.06519417
    C     10.78034309      2.14463182      0.00798757      4.06058312
    C     -0.00302370      8.36900331      0.01181128      3.93646487
    C     -0.00285639      6.94950780      0.01022163      3.93735368
    C      1.22521553      6.23891031      0.01434154      3.93633199
    C      2.45454038      6.94880712      0.01897864      3.93703138
    C      2.45508097      8.36893465      0.02068567      3.93624682
    C      1.22613822      9.07894461      0.01763084      3.93666977
    C      1.22524775     10.52388250      0.01840186      4.06506523
    C      1.22477004     11.74300832      0.01780608      4.06112066
    C      3.70675318      9.09135148      0.02336769      4.06387808
    C      4.76310180      9.70210388      0.02320576      4.06304241
    C      3.70845106      6.22525753      0.02061580      4.06347466
    C      4.76158812      5.61752052      0.02042987      4.06364327
    C      6.01632339     -2.05631466      0.01005421      3.93673988
    C      6.01593249     -3.47573102      0.01257964      3.93676105
    C      7.24603224     -4.18475127      0.01206026      3.93624207
    C      8.47539979     -3.47462457      0.00840335      3.93697414
    C      8.47519679     -2.05534755      0.00702275      3.93656994
    C      7.24545300     -1.34583366      0.00867120      3.93670249
    C      7.24497751      0.10145717      0.00984434      4.06344534
    C      7.24513402      1.31796597      0.01173047      4.06364911
    C      9.72933490     -1.33059096      0.00515596      4.06373299
    C     10.78017652     -0.72562417      0.00414811      4.06304016
    C      9.73024848     -4.19814698      0.00759107      4.06535414
    C     10.78194185     -4.80437416      0.00764063      4.06050570
    C     -0.00230430      1.41810235      0.00277115      3.93659306
    C     -0.00301939     -0.00089107      0.00184091      3.93751934
    C      1.22550070     -0.71056619      0.00525191      3.93625479
    C      2.45547392     -0.00148445      0.00801935      3.93732687
    C      2.45585457      1.41815676      0.01018358      3.93630886
    C      1.22690762      2.12777384      0.00773915      3.93712179
    C      1.22623588      3.57511202      0.01093781      4.06363963
    C      1.22582639      4.79173727      0.01264000      4.06349689
    C      3.70900772      2.14212345      0.01459237      4.06335837
    C      4.76221995      2.75063235      0.01633067      4.06361135
    C      3.70972686     -0.72489461      0.01011266      4.06368813
    C      4.76270979     -1.33266983      0.01041244      4.06349347
   48
Geometry Step: 6
    C      6.01499148      4.89449955      0.01876676      3.93650929
    C      6.01524340      3.47436611      0.01678392      3.93653313
    C      7.24534099      2.76472197      0.01410826      3.93651379
    C      8.47481612      3.47527835      0.01329836      3.93665175
    C      8.47487337      4.89527829      0.01562064      3.93652823
    C      7.24468730      5.60468753      0.01831221      3.93668563
    C      7.24399981      7.05000716      0.01955001      4.06386988
    C      7.24436961      8.26625164      0.01987213      4.06277174
    C      9.72604726      5.61779403      0.01403838      4.06394335
    C     10.78128538      6.22560451      0.01184152      4.06247671
    C      9.72678301      2.75251469      0.01036579      4.06421524
    C     10.78024440      2.14477674      0.00801995      4.06222040
    C     -0.00197681      8.36805279      0.01181664      3.93671284
    C     -0.00268322      6.94872589      0.01020074      3.93656090
    C      1.22572864      6.23860620      0.01432467      3.93656638
    C      2.45502224      6.94867179      0.01898194      3.93670485
    C      2.45530035      8.36890414      0.02070699      3.93664813
    C      1.22630961      9.07895059      0.01764950      3.93661810
    C      1.22526894     10.52419170      0.01838712      4.06388368
    C      1.22489602     11.74042865      0.01761935      4.06268152
    C      3.70747893      9.09171345      0.02335505      4.06357209
    C      4.76222344      9.70100161      0.02306841      4.06331382
    C      3.70714708      6.22600324      0.02061418      4.06351803
    C      4.76280867      5.61682638      0.02042312      4.06358447
    C      6.01615346     -2.05573555      0.01007203      3.93652649
    C      6.01588138     -3.47489847      0.01272257      3.93653206
    C      7.24581461     -4.18314731      0.01212967      3.93658857
    C      8.47585442     -3.47462921      0.00841721      3.93664359
    C      8.47563783     -2.05509888      0.00700007      3.93644373
    C      7.24550841     -1.34548734      0.00863685      3.93675651
    C      7.24497959      0.10034546      0.00983005      4.06352994
    C      7.24516172      1.31901544      0.01173552      4.06356285
    C      9.72643500     -1.33224377      0.00517166      4.06386902
    C     10.78225583     -0.72372730      0.00419924      4.06277450
    C      9.72809211     -4.19696557      0.00759131      4.06426333
    C     10.78184188     -4.80431218      0.00750595      4.06215467
    C     -0.00111055      1.41764845      0.00292117      3.93669579
    C     -0.00237839     -0.00054528      0.00210509      3.93647791
    C      1.22585870     -0.70899816      0.00541834      3.93670237
    C      2.45606919     -0.00144887      0.00799999      3.93669289
    C      2.45636974      1.41832064      0.01011028      3.93653664
    C      1.22714109      2.12825057      0.00769307      3.93679122
    C      1.22623667      3.57406695      0.01093783      4.06351666
    C      1.22578778      4.79277555      0.01263649      4.06352142
    C      3.70796295      2.14148945      0.01457858      4.06345716
    C      4.76330449      2.75125115      0.01632415      4.06358566
    C      3.70829189     -0.72414405      0.01012500      4.06362404
    C      4.76398464     -1.33340687      0.01041826      4.06346903
   48
Geometry Step: 7
    C      6.01500618      4.89441753      0.01877751      3.93669004
    C      6.01520769      3.47437211      0.01678754      3.93654060
    C      7.24525834      2.76474154      0.01409622      3.93671812
    C      8.47481535      3.47522313      0.01328520      3.93640899
    C      8.47452717      4.89507313      0.01564614      3.93681517
    C      7.24463943      5.60448854      0.01834057      3.93645344
    C      7.24404240      7.04808627      0.01954125      4.06361284
    C      7.24461551      8.26610509      0.01975288      4.06325049
    C      9.72545388      5.61745619      0.01402181      4.06352199
    C     10.77977553      6.22490154      0.01156994      4.06298427
    C      9.72432688      2.75393933      0.01037940      4.06338237
    C     10.78013463      2.14475173      0.00807326      4.06356293
    C     -0.00067831      8.36716977      0.01183102      3.93647268
    C     -0.00145235      6.94845982      0.01017822      3.93643344
    C      1.22655952      6.23842780      0.01429661      3.93646462
    C      2.45540602      6.94875005      0.01898648      3.93668757
    C      2.45560799      8.36884575      0.02073587      3.93678535
    C      1.22665513      9.07875222      0.01767279      3.93632224
    C      1.22530972     10.52231415      0.01836394      4.06357248
    C      1.22506478     11.74022347      0.01731288      4.06308292
    C      3.70763124      9.09169745      0.02333477      4.06365865
    C      4.76191595      9.69998984      0.02285589      4.06303663
    C      3.70745702      6.22584233      0.02061203      4.06354622
    C      4.76247696      5.61704627      0.02041275      4.06358308
    C      6.01621768     -2.05511300      0.01011353      3.93660962
    C      6.01589925     -3.47387134      0.01293257      3.93645277
    C      7.24553929     -4.18213062      0.01223640      3.93669584
    C      8.47596514     -3.47441647      0.00844676      3.93640413
    C      8.47545333     -2.05505609      0.00696930      3.93670260
    C      7.24558953     -1.34529009      0.00858490      3.93670802
    C      7.24500456      0.10057491      0.00980518      4.06351494
    C      7.24521320      1.31872692      0.01173996      4.06357915
    C      9.72632989     -1.33226094      0.00519166      4.06338159
    C     10.78072263     -0.72366868      0.00427878      4.06346149
    C      9.72560101     -4.19565613      0.00758706      4.06338802
    C     10.78161547     -4.80435666      0.00728019      4.06344675
    C      0.00032666      1.41762824      0.00317564      3.93635735
    C     -0.00101390      0.00026570      0.00252164      3.93630850
    C      1.22663027     -0.70821185      0.00568123      3.93648775
    C      2.45655162     -0.00109870      0.00798168      3.93666191
    C      2.45672898      1.41846969      0.00999309      3.93664005
    C      1.22765250      2.12849981      0.00762812      3.93664733
    C      1.22626445      3.57437675      0.01093510      4.06345333
    C      1.22579232      4.79246475      0.01262736      4.06346479
    C      3.70846095      2.14171477      0.01455291      4.06348486
    C      4.76297663      2.75104870      0.01631002      4.06352213
    C      3.70852569     -0.72438890      0.01014201      4.06359872
    C      4.76355897     -1.33309513      0.01042591      4.06344122
   48
Geometry Step: 8
    C      6.01487996      4.89423537      0.01879863      3.93671955
    C      6.01508736      3.47432459      0.01679464      3.93656432
    C      7.24499874      2.76470759      0.01407478      3.93674176
    C      8.47392061      3.47554921      0.01326487      3.93645986
    C      8.47381803      4.89466982      0.01568751      3.93668171
    C      7.24451319      5.60361772      0.01839006      3.93646164
    C      7.24411472      7.04679457      0.01952563      4.06347862
    C      7.24490768      8.26431950      0.01954067      4.06352546
    C      9.72387527      5.61655277      0.01399109      4.06346587
    C     10.77793299      6.22410459      0.01107357      4.06298417
    C      9.72336875      2.75450544      0.01039776      4.06329786
    C     10.77805589      2.14572703      0.00817865      4.06371049
    C      0.00071884      8.36612523      0.01186125      3.93661755
    C      0.00007489      6.94761064      0.01013999      3.93641663
    C      1.22799754      6.23797296      0.01424339      3.93649624
    C      2.45617280      6.94888652      0.01899445      3.93672975
    C      2.45626283      8.36866696      0.02078439      3.93671872
    C      1.22747997      9.07789881      0.01771065      3.93631969
    C      1.22537468     10.52098982      0.01831747      4.06340888
    C      1.22529309     11.73833177      0.01675172      4.06326738
    C      3.70709756      9.09118460      0.02329720      4.06352293
    C      4.76190573      9.69852229      0.02247164      4.06316274
    C      3.70769382      6.22577095      0.02060832      4.06350466
    C      4.76235972      5.61716596      0.02039310      4.06366875
    C      6.01624508     -2.05384093      0.01020146      3.93656936
    C      6.01608008     -3.47209241      0.01330150      3.93638530
    C      7.24519882     -4.18053966      0.01242390      3.93673774
    C      8.47530924     -3.47345757      0.00850773      3.93637187
    C      8.47505942     -2.05483461      0.00691724      3.93664763
    C      7.24572831     -1.34489650      0.00849299      3.93672662
    C      7.24507287      0.10074153      0.00975367      4.06351656
    C      7.24530156      1.31857420      0.01174804      4.06362290
    C      9.72567676     -1.33254752      0.00522790      4.06346340
    C     10.77910815     -0.72297788      0.00442846      4.06332352
    C      9.72445878     -4.19522923      0.00757316      4.06328769
    C     10.77935435     -4.80337397      0.00685513      4.06347746
    C      0.00200996      1.41824439      0.00365839      3.93642150
    C      0.00098272      0.00136296      0.00328765      3.93626689
    C      1.22815616     -0.70709694      0.00615601      3.93650776
    C      2.45754859     -0.00032814      0.00796032      3.93659744
    C      2.45752564      1.41885060      0.00978007      3.93666470