nohup: ignoring input
|===============================================================================
|
|  DFTB+ release 22.2
|
|  Copyright (C) 2006 - 2022  DFTB+ developers group
|
|===============================================================================
|
|  When publishing results obtained with DFTB+, please cite the following
|  reference:
|
|  * DFTB+, a software package for efficient approximate density functional
|    theory based atomistic simulations, J. Chem. Phys. 152, 124101 (2020).
|    [doi: 10.1063/1.5143190]
|
|  You should also cite additional publications crediting the parametrization
|  data you use. Please consult the documentation of the SK-files for the
|  references.
|
|===============================================================================

Reading input file 'dftb_in.hsd'
Parser version: 12

--------------------------------------------------------------------------------
Reading SK-files:
/home/common/3ob-3-1_H_mod/C-C.skf
Done.


Processed input in HSD format written to 'dftb_pin.hsd'

Starting initialization...
--------------------------------------------------------------------------------
WARNING!
-> Dipole printed for extended system : value printed is not well defined
Chosen random seed:          906835142
Mode:                        Static calculation
Self consistent charges:     Yes
SCC-tolerance:                 0.100000E-04
Max. scc iterations:                  10000
Shell resolved Hubbard:      No
Spin polarisation:           No
Nr. of up electrons:            96.000000
Nr. of down electrons:          96.000000
Periodic boundaries:         Yes
Electronic solver:           Relatively robust
Mixer:                       Anderson mixer
Mixing parameter:                  0.050000
Maximal SCC-cycles:                   10000
Nr. of chrg. vectors to mix:              4
Electronic temperature:              0.100000E-07 H      0.272114E-06 eV
Initial charges:             Set automatically (system chrg:   0.000E+00)
Included shells:             C:  s, p
K-points and weights:           1:  0.000000  0.000000  0.000000     1.000000

K-points in absolute space:     1:  0.000000  0.000000  0.000000

s-dftd3 library version:     0.7.0
-> damping function:         rational damping
Full 3rd order correction    Yes
Extra options:
                             Mulliken analysis
                             Force calculation
Force type                   original

--------------------------------------------------------------------------------

***  Geometry step: 0

 iSCC Total electronic   Diff electronic      SCC error    
    1    0.00000000E+00    0.00000000E+00    0.14096064E+00
    2   -0.82956598E+02   -0.82956598E+02    0.13811234E+00
    3   -0.82958204E+02   -0.16059386E-02    0.29534788E-02
    4   -0.82997567E+02   -0.39362425E-01    0.23393005E-02
    5   -0.82997568E+02   -0.98125886E-06    0.99736995E-03
    6   -0.82997568E+02   -0.75995736E-06    0.78629042E-03
    7   -0.82997568E+02   -0.34991444E-07    0.15840638E-03
    8   -0.82997569E+02   -0.27458563E-06    0.13633050E-03
    9   -0.82997569E+02   -0.26463169E-08    0.36623182E-04
   10   -0.82997569E+02   -0.61823755E-08    0.32883079E-04
   11   -0.82997569E+02   -0.63892003E-10    0.21509784E-04
   12   -0.82997569E+02   -0.90096819E-10    0.15986084E-04
   13   -0.82997569E+02   -0.53816507E-10    0.13396534E-04
   14   -0.82997569E+02   -0.25167424E-10    0.11310801E-04
   15   -0.82997569E+02   -0.65512040E-11    0.39604788E-05

Total Energy:                      -81.2069731049 H        -2209.7542 eV
Extrapolated to 0K:                -81.2069731049 H        -2209.7542 eV
Total Mermin free energy:          -81.2069731049 H        -2209.7542 eV
Force related energy:              -81.2069731049 H        -2209.7542 eV

Volume:                              0.564684E+05 au^3   0.836775E+04 A^3
Pressure:                           -0.113556E-04 au    -0.334092E+09 Pa
>> Charges saved for restart in charges.bin

total energy  -8.1206973E+01 H       energy change -8.1206973E+01 H
gradient norm  1.0398464E+00 H/a0    max. gradient  2.0782920E-01 H/a0
step length    0.0000000E+00 a0      max. step      0.0000000E+00 a0

--------------------------------------------------------------------------------

***  Geometry step: 1

 iSCC Total electronic   Diff electronic      SCC error    
    1   -0.82997569E+02    0.00000000E+00    0.18697262E-01
    2   -0.84017725E+02   -0.10201560E+01    0.18315910E-01
    3   -0.84017730E+02   -0.53632117E-05    0.47516812E-02
    4   -0.84017814E+02   -0.83841684E-04    0.46572503E-02
    5   -0.84017814E+02   -0.50555120E-06    0.11630763E-02
    6   -0.84017827E+02   -0.12914669E-04    0.10524911E-02
    7   -0.84017827E+02   -0.87740801E-07    0.22938966E-03
    8   -0.84017828E+02   -0.24947741E-06    0.19485869E-03
    9   -0.84017828E+02   -0.11843085E-07    0.61407817E-04
   10   -0.84017828E+02   -0.25931612E-07    0.49889141E-04
   11   -0.84017828E+02   -0.34933123E-09    0.12242530E-04
   12   -0.84017828E+02   -0.51055338E-09    0.82661279E-05

Total Energy:                      -81.4425205285 H        -2216.1637 eV
Extrapolated to 0K:                -81.4425205285 H        -2216.1637 eV
Total Mermin free energy:          -81.4425205285 H        -2216.1637 eV
Force related energy:              -81.4425205285 H        -2216.1637 eV

Volume:                              0.568451E+05 au^3   0.842358E+04 A^3
Pressure:                           -0.315161E-05 au    -0.927235E+08 Pa
>> Charges saved for restart in charges.bin

total energy  -8.1442521E+01 H       energy change -2.3554742E-01 H
gradient norm  4.2929681E-01 H/a0    max. gradient  1.7198614E-01 H/a0
step length    6.2875759E-01 a0      max. step      1.2566681E-01 a0

--------------------------------------------------------------------------------

***  Geometry step: 2

 iSCC Total electronic   Diff electronic      SCC error    
    1   -0.84017828E+02    0.00000000E+00    0.53234699E-01
    2   -0.83907621E+02    0.11020706E+00    0.52196136E-01
    3   -0.83907641E+02   -0.19980515E-04    0.11073483E-01
    4   -0.83907922E+02   -0.28118770E-03    0.10792897E-01
    5   -0.83907925E+02   -0.32454186E-05    0.24027660E-02
    6   -0.83907981E+02   -0.56076175E-04    0.21463175E-02
    7   -0.83907982E+02   -0.55650203E-06    0.52346859E-03
    8   -0.83907983E+02   -0.13296418E-05    0.42966053E-03
    9   -0.83907983E+02   -0.71011470E-07    0.22695917E-03
   10   -0.83907983E+02   -0.13441588E-06    0.14742617E-03
   11   -0.83907983E+02   -0.67065145E-08    0.37866570E-04
   12   -0.83907983E+02   -0.30097453E-08    0.15654489E-04
   13   -0.83907983E+02   -0.88861896E-09    0.47068895E-05

Total Energy:                      -81.4771452072 H        -2217.1059 eV
Extrapolated to 0K:                -81.4771452072 H        -2217.1059 eV
Total Mermin free energy:          -81.4771452072 H        -2217.1059 eV
Force related energy:              -81.4771452072 H        -2217.1059 eV

Volume:                              0.563108E+05 au^3   0.834440E+04 A^3
Pressure:                           -0.209146E-05 au    -0.615330E+08 Pa
>> Charges saved for restart in charges.bin

total energy  -8.1477145E+01 H       energy change -3.4624679E-02 H
gradient norm  2.0096234E-01 H/a0    max. gradient  1.1413450E-01 H/a0
step length    2.0846331E-01 a0      max. step      1.0427115E-01 a0

--------------------------------------------------------------------------------

***  Geometry step: 3

 iSCC Total electronic   Diff electronic      SCC error    
    1   -0.83907983E+02    0.00000000E+00    0.36930219E-01
    2   -0.83784690E+02    0.12329266E+00    0.36205674E-01
    3   -0.83784699E+02   -0.87982560E-05    0.74075635E-02
    4   -0.83784808E+02   -0.10866696E-03    0.72575158E-02
    5   -0.83784809E+02   -0.12210746E-05    0.18537870E-02
    6   -0.83784843E+02   -0.33353663E-04    0.16628525E-02
    7   -0.83784843E+02   -0.26627534E-06    0.39250851E-03
    8   -0.83784843E+02   -0.59939039E-06    0.31447819E-03
    9   -0.83784843E+02   -0.24395078E-07    0.14240193E-03
   10   -0.83784843E+02   -0.52850083E-07    0.11022496E-03
   11   -0.83784843E+02   -0.99159791E-08    0.94490079E-04
   12   -0.83784843E+02    0.74975048E-09    0.47692864E-04
   13   -0.83784843E+02   -0.77368156E-09    0.40827711E-04
   14   -0.83784843E+02   -0.63086247E-09    0.30418339E-04
   15   -0.83784843E+02   -0.60553873E-09    0.25156990E-04
   16   -0.83784843E+02    0.12109069E-09    0.21822272E-04
   17   -0.83784843E+02   -0.23334223E-10    0.57848908E-05

Total Energy:                      -81.4776251899 H        -2217.1190 eV
Extrapolated to 0K:                -81.4776251899 H        -2217.1190 eV
Total Mermin free energy:          -81.4776251899 H        -2217.1190 eV
Force related energy:              -81.4776251899 H        -2217.1190 eV

Volume:                              0.565182E+05 au^3   0.837514E+04 A^3
Pressure:                           -0.600796E-05 au    -0.176760E+09 Pa
>> Charges saved for restart in charges.bin

total energy  -8.1477625E+01 H       energy change -4.7998272E-04 H
gradient norm  1.7573244E-01 H/a0    max. gradient  7.8514829E-02 H/a0
step length    1.2844468E-01 a0      max. step      6.5094030E-02 a0

--------------------------------------------------------------------------------

***  Geometry step: 4

 iSCC Total electronic   Diff electronic      SCC error    
    1   -0.83784843E+02    0.00000000E+00    0.11574598E-01
    2   -0.83873893E+02   -0.89049770E-01    0.11331100E-01
    3   -0.83873895E+02   -0.13272348E-05    0.26631274E-02
    4   -0.83873911E+02   -0.16768809E-04    0.26138113E-02
    5   -0.83873912E+02   -0.17952925E-06    0.53127704E-03
    6   -0.83873916E+02   -0.41391513E-05    0.48207991E-03
    7   -0.83873916E+02   -0.33301248E-07    0.15575067E-03
    8   -0.83873916E+02   -0.75849812E-07    0.13116985E-03
    9   -0.83873916E+02   -0.44754813E-08    0.73335510E-04
   10   -0.83873916E+02   -0.81494989E-08    0.36197295E-04
   11   -0.83873916E+02   -0.84187946E-09    0.71625552E-05

Total Energy:                      -81.4833286348 H        -2217.2742 eV
Extrapolated to 0K:                -81.4833286348 H        -2217.2742 eV
Total Mermin free energy:          -81.4833286348 H        -2217.2742 eV
Force related energy:              -81.4833286348 H        -2217.2742 eV

Volume:                              0.564581E+05 au^3   0.836622E+04 A^3
Pressure:                           -0.427657E-05 au    -0.125821E+09 Pa
>> Charges saved for restart in charges.bin

total energy  -8.1483329E+01 H       energy change -5.7034449E-03 H
gradient norm  4.4501390E-02 H/a0    max. gradient  2.7218614E-02 H/a0
step length    6.9974982E-02 a0      max. step      2.3991771E-02 a0

--------------------------------------------------------------------------------

***  Geometry step: 5

 iSCC Total electronic   Diff electronic      SCC error    
    1   -0.83873916E+02    0.00000000E+00    0.90992009E-02
    2   -0.83901189E+02   -0.27273123E-01    0.89336702E-02
    3   -0.83901189E+02   -0.35812545E-06    0.14206060E-02
    4   -0.83901194E+02   -0.51732069E-05    0.13741853E-02
    5   -0.83901195E+02   -0.83225387E-07    0.46965480E-03
    6   -0.83901196E+02   -0.15062057E-05    0.42680462E-03
    7   -0.83901196E+02   -0.78270688E-08    0.91386584E-04
    8   -0.83901196E+02   -0.19100796E-07    0.81402936E-04
    9   -0.83901196E+02   -0.15693189E-08    0.32746932E-04
   10   -0.83901196E+02   -0.31705270E-08    0.22637645E-04
   11   -0.83901196E+02   -0.89457330E-10    0.58848457E-05

Total Energy:                      -81.4834919074 H        -2217.2786 eV
Extrapolated to 0K:                -81.4834919074 H        -2217.2786 eV
Total Mermin free energy:          -81.4834919074 H        -2217.2786 eV
Force related energy:              -81.4834919074 H        -2217.2786 eV

Volume:                              0.563710E+05 au^3   0.835333E+04 A^3
Pressure:                           -0.310699E-05 au    -0.914107E+08 Pa
>> Charges saved for restart in charges.bin

total energy  -8.1483492E+01 H       energy change -1.6327260E-04 H
gradient norm  4.1489085E-02 H/a0    max. gradient  1.7545408E-02 H/a0
step length    3.5956099E-02 a0      max. step      2.1662347E-02 a0

--------------------------------------------------------------------------------

***  Geometry step: 6

 iSCC Total electronic   Diff electronic      SCC error    
    1   -0.83901196E+02    0.00000000E+00    0.28543170E-02
    2   -0.83885996E+02    0.15199562E-01    0.27999333E-02
    3   -0.83885997E+02   -0.61115713E-07    0.56326613E-03
    4   -0.83885997E+02   -0.89702372E-06    0.54490344E-03
    5   -0.83885997E+02   -0.11927398E-07    0.15734959E-03
    6   -0.83885998E+02   -0.23772736E-06    0.14287851E-03
    7   -0.83885998E+02   -0.11637269E-08    0.33095665E-04
    8   -0.83885998E+02   -0.25789006E-08    0.27431645E-04
    9   -0.83885998E+02   -0.25835334E-09    0.10500476E-04
   10   -0.83885998E+02   -0.52618532E-09    0.75268401E-05

Total Energy:                      -81.4838716527 H        -2217.2890 eV
Extrapolated to 0K:                -81.4838716527 H        -2217.2890 eV
Total Mermin free energy:          -81.4838716527 H        -2217.2890 eV
Force related energy:              -81.4838716527 H        -2217.2890 eV

Volume:                              0.563833E+05 au^3   0.835514E+04 A^3
Pressure:                           -0.346364E-05 au    -0.101904E+09 Pa
>> Charges saved for restart in charges.bin

total energy  -8.1483872E+01 H       energy change -3.7974533E-04 H
gradient norm  1.3886459E-02 H/a0    max. gradient  5.1313545E-03 H/a0
step length    1.8708706E-02 a0      max. step      5.8167400E-03 a0

--------------------------------------------------------------------------------

***  Geometry step: 7

 iSCC Total electronic   Diff electronic      SCC error    
    1   -0.83885998E+02    0.00000000E+00    0.23647789E-02
    2   -0.83885018E+02    0.98017589E-03    0.23181402E-02
    3   -0.83885018E+02   -0.25859009E-07    0.43516395E-03
    4   -0.83885018E+02   -0.35014027E-06    0.42717456E-03
    5   -0.83885018E+02   -0.44689443E-08    0.95478557E-04
    6   -0.83885018E+02   -0.94316803E-07    0.86554147E-04
    7   -0.83885018E+02   -0.90281560E-09    0.25117838E-04
    8   -0.83885018E+02   -0.20905873E-08    0.20736870E-04
    9   -0.83885018E+02   -0.12079227E-09    0.73490736E-05

Total Energy:                      -81.4839559569 H        -2217.2913 eV
Extrapolated to 0K:                -81.4839559569 H        -2217.2913 eV
Total Mermin free energy:          -81.4839559569 H        -2217.2913 eV
Force related energy:              -81.4839559569 H        -2217.2913 eV

Volume:                              0.563819E+05 au^3   0.835493E+04 A^3
Pressure:                           -0.346132E-05 au    -0.101836E+09 Pa
>> Charges saved for restart in charges.bin

total energy  -8.1483956E+01 H       energy change -8.4304187E-05 H
gradient norm  1.3463167E-02 H/a0    max. gradient  6.8573027E-03 H/a0
step length    1.4005270E-02 a0      max. step      4.7074985E-03 a0

--------------------------------------------------------------------------------

***  Geometry step: 8

 iSCC Total electronic   Diff electronic      SCC error    
    1   -0.83885018E+02    0.00000000E+00    0.49242137E-03
    2   -0.83894835E+02   -0.98164998E-02    0.48282423E-03
    3   -0.83894835E+02   -0.30278073E-08    0.10360799E-03
    4   -0.83894835E+02   -0.50445664E-07    0.10151147E-03
    5   -0.83894835E+02   -0.12627765E-09    0.23570052E-04
    6   -0.83894835E+02   -0.34898449E-08    0.21767249E-04
    7   -0.83894835E+02   -0.18815172E-10    0.48417425E-05

Total Energy:                      -81.4841121078 H        -2217.2955 eV
Extrapolated to 0K:                -81.4841121078 H        -2217.2955 eV
Total Mermin free energy:          -81.4841121078 H        -2217.2955 eV
Force related energy:              -81.4841121078 H        -2217.2955 eV

Volume:                              0.563520E+05 au^3   0.835051E+04 A^3
Pressure:                           -0.304054E-05 au    -0.894559E+08 Pa
>> Charges saved for restart in charges.bin

total energy  -8.1484112E+01 H       energy change -1.5615085E-04 H
gradient norm  1.0882270E-02 H/a0    max. gradient  5.9298632E-03 H/a0
step length    2.0165260E-02 a0      max. step      8.7175715E-03 a0

--------------------------------------------------------------------------------

***  Geometry step: 9

 iSCC Total electronic   Diff electronic      SCC error    
    1   -0.83894835E+02    0.00000000E+00    0.10846914E-02
    2   -0.83935442E+02   -0.40607551E-01    0.10632394E-02
    3   -0.83935442E+02   -0.30459248E-07    0.30467520E-03
    4   -0.83935443E+02   -0.50061713E-06    0.29798154E-03
    5   -0.83935443E+02   -0.10356729E-08    0.50340817E-04
    6   -0.83935443E+02   -0.24989816E-07    0.45102833E-04
    7   -0.83935443E+02   -0.39598547E-09    0.22477441E-04
    8   -0.83935443E+02   -0.82705753E-09    0.15794638E-04
    9   -0.83935443E+02   -0.31732839E-10    0.27090475E-05

Total Energy:                      -81.4844437428 H        -2217.3045 eV
Extrapolated to 0K:                -81.4844437428 H        -2217.3045 eV
Total Mermin free energy:          -81.4844437428 H        -2217.3045 eV
Force related energy:              -81.4844437428 H        -2217.3045 eV

Volume:                              0.561931E+05 au^3   0.832696E+04 A^3
Pressure:                           -0.965545E-06 au    -0.284073E+08 Pa
>> Charges saved for restart in charges.bin

total energy  -8.1484444E+01 H       energy change -3.3163499E-04 H
gradient norm  1.2532439E-02 H/a0    max. gradient  3.2565600E-03 H/a0
step length    9.9221226E-02 a0      max. step      4.1807756E-02 a0

--------------------------------------------------------------------------------

***  Geometry step: 10

 iSCC Total electronic   Diff electronic      SCC error    
    1   -0.83935443E+02    0.00000000E+00    0.78665590E-03
    2   -0.83937496E+02   -0.20529259E-02    0.77245355E-03
    3   -0.83937496E+02   -0.51594213E-08    0.15179025E-03
    4   -0.83937496E+02   -0.78224119E-07    0.14810598E-03
    5   -0.83937496E+02   -0.11581420E-08    0.42451465E-04
    6   -0.83937496E+02   -0.20964649E-07    0.39149180E-04
    7   -0.83937496E+02   -0.87851504E-10    0.14448646E-04
    8   -0.83937496E+02   -0.24382985E-09    0.12106261E-04
    9   -0.83937496E+02   -0.15404567E-10    0.27301442E-05

Total Energy:                      -81.4844923880 H        -2217.3059 eV
Extrapolated to 0K:                -81.4844923880 H        -2217.3059 eV
Total Mermin free energy:          -81.4844923880 H        -2217.3059 eV
Force related energy:              -81.4844923880 H        -2217.3059 eV

Volume:                              0.561746E+05 au^3   0.832422E+04 A^3
Pressure:                           -0.760029E-06 au    -0.223608E+08 Pa
>> Charges saved for restart in charges.bin

total energy  -8.1484492E+01 H       energy change -4.8645285E-05 H
gradient norm  1.1889738E-02 H/a0    max. gradient  3.7201700E-03 H/a0
step length    1.8730586E-02 a0      max. step      5.7429200E-03 a0

--------------------------------------------------------------------------------

***  Geometry step: 11

 iSCC Total electronic   Diff electronic      SCC error    
    1   -0.83937496E+02    0.00000000E+00    0.53615252E-03
    2   -0.83936940E+02    0.55526846E-03    0.52241725E-03
    3   -0.83936940E+02   -0.81380449E-08    0.13322416E-03
    4   -0.83936941E+02   -0.12373114E-06    0.13103166E-03
    5   -0.83936941E+02   -0.23980817E-09    0.26225036E-04
    6   -0.83936941E+02   -0.59391141E-08    0.23620880E-04
    7   -0.83936941E+02   -0.95795372E-10    0.12122968E-04
    8   -0.83936941E+02   -0.21296387E-09    0.88015361E-05

Total Energy:                      -81.4845490689 H        -2217.3074 eV
Extrapolated to 0K:                -81.4845490689 H        -2217.3074 eV
Total Mermin free energy:          -81.4845490689 H        -2217.3074 eV
Force related energy:              -81.4845490689 H        -2217.3074 eV

Volume:                              0.561797E+05 au^3   0.832498E+04 A^3
Pressure:                           -0.816563E-06 au    -0.240241E+08 Pa
>> Charges saved for restart in charges.bin

total energy  -8.1484549E+01 H       energy change -5.6680833E-05 H
gradient norm  6.5590950E-03 H/a0    max. gradient  1.6809754E-03 H/a0
step length    8.2569047E-03 a0      max. step      1.8948706E-03 a0

--------------------------------------------------------------------------------

***  Geometry step: 12

 iSCC Total electronic   Diff electronic      SCC error    
    1   -0.83936941E+02    0.00000000E+00    0.98936522E-03
    2   -0.83940308E+02   -0.33675838E-02    0.97425330E-03
    3   -0.83940308E+02   -0.34422570E-07    0.42280726E-03
    4   -0.83940309E+02   -0.52142555E-06    0.41273952E-03
    5   -0.83940309E+02   -0.14136106E-08    0.72694393E-04
    6   -0.83940309E+02   -0.37185387E-07    0.67013378E-04
    7   -0.83940309E+02   -0.56421356E-09    0.26171906E-04
    8   -0.83940309E+02   -0.11945929E-08    0.19632186E-04
    9   -0.83940309E+02   -0.66393113E-10    0.59132343E-05

Total Energy:                      -81.4846128645 H        -2217.3091 eV
Extrapolated to 0K:                -81.4846128645 H        -2217.3091 eV
Total Mermin free energy:          -81.4846128645 H        -2217.3091 eV
Force related energy:              -81.4846128645 H        -2217.3091 eV

Volume:                              0.561704E+05 au^3   0.832360E+04 A^3
Pressure:                           -0.681774E-06 au    -0.200585E+08 Pa
>> Charges saved for restart in charges.bin

total energy  -8.1484613E+01 H       energy change -6.3795640E-05 H
gradient norm  5.4707523E-03 H/a0    max. gradient  1.7017976E-03 H/a0
step length    2.3565490E-02 a0      max. step      5.0878681E-03 a0

--------------------------------------------------------------------------------

***  Geometry step: 13

 iSCC Total electronic   Diff electronic      SCC error    
    1   -0.83940309E+02    0.00000000E+00    0.54824701E-03
    2   -0.83943198E+02   -0.28889294E-02    0.53598817E-03
    3   -0.83943198E+02   -0.70866264E-08    0.13149552E-03
    4   -0.83943198E+02   -0.96968165E-07    0.12786461E-03
    5   -0.83943198E+02   -0.26226132E-09    0.39150725E-04
    6   -0.83943198E+02   -0.88030276E-08    0.34425552E-04
    7   -0.83943198E+02   -0.11637269E-09    0.11950231E-04
    8   -0.83943198E+02   -0.26847147E-09    0.93894119E-05

Total Energy:                      -81.4846369329 H        -2217.3098 eV
Extrapolated to 0K:                -81.4846369329 H        -2217.3098 eV
Total Mermin free energy:          -81.4846369329 H        -2217.3098 eV
Force related energy:              -81.4846369329 H        -2217.3098 eV

Volume:                              0.561532E+05 au^3   0.832104E+04 A^3
Pressure:                           -0.480096E-06 au    -0.141249E+08 Pa
>> Charges saved for restart in charges.bin

total energy  -8.1484637E+01 H       energy change -2.4068345E-05 H
gradient norm  4.7521822E-03 H/a0    max. gradient  1.3946786E-03 H/a0
step length    1.8793091E-02 a0      max. step      4.4682880E-03 a0

--------------------------------------------------------------------------------

***  Geometry step: 14

 iSCC Total electronic   Diff electronic      SCC error    
    1   -0.83943198E+02    0.00000000E+00    0.20605157E-03
    2   -0.83946411E+02   -0.32133675E-02    0.19883146E-03
    3   -0.83946411E+02   -0.27047236E-08    0.68669381E-04
    4   -0.83946411E+02   -0.37923016E-07    0.67432097E-04
    5   -0.83946411E+02   -0.47634785E-10    0.11173122E-04
    6   -0.83946411E+02   -0.10557244E-08    0.10512221E-04
    7   -0.83946411E+02   -0.24826363E-10    0.60039917E-05

Total Energy:                      -81.4846598224 H        -2217.3104 eV
Extrapolated to 0K:                -81.4846598224 H        -2217.3104 eV
Total Mermin free energy:          -81.4846598224 H        -2217.3104 eV
Force related energy:              -81.4846598224 H        -2217.3104 eV

Volume:                              0.561390E+05 au^3   0.831894E+04 A^3
Pressure:                           -0.300633E-06 au    -0.884494E+07 Pa
>> Charges saved for restart in charges.bin

total energy  -8.1484660E+01 H       energy change -2.2889543E-05 H
gradient norm  3.6176006E-03 H/a0    max. gradient  7.7556487E-04 H/a0
step length    1.6757264E-02 a0      max. step      3.9201318E-03 a0

--------------------------------------------------------------------------------

***  Geometry step: 15

 iSCC Total electronic   Diff electronic      SCC error    
    1   -0.83946411E+02    0.00000000E+00    0.39768479E-03
    2   -0.83949967E+02   -0.35561002E-02    0.38737261E-03
    3   -0.83949967E+02   -0.35685872E-08    0.94297509E-04
    4   -0.83949967E+02   -0.56560623E-07    0.92543799E-04
    5   -0.83949967E+02   -0.13204726E-09    0.19375346E-04
    6   -0.83949967E+02   -0.28640557E-08    0.17225283E-04
    7   -0.83949967E+02   -0.62868821E-10    0.88413671E-05

Total Energy:                      -81.4846859031 H        -2217.3111 eV
Extrapolated to 0K:                -81.4846859031 H        -2217.3111 eV
Total Mermin free energy:          -81.4846859031 H        -2217.3111 eV
Force related energy:              -81.4846859031 H        -2217.3111 eV

Volume:                              0.561241E+05 au^3   0.831674E+04 A^3
Pressure:                           -0.109269E-06 au    -0.321479E+07 Pa
>> Charges saved for restart in charges.bin

total energy  -8.1484686E+01 H       energy change -2.6080738E-05 H
gradient norm  4.1135129E-03 H/a0    max. gradient  1.2091858E-03 H/a0
step length    2.1858555E-02 a0      max. step      6.1846731E-03 a0

--------------------------------------------------------------------------------

***  Geometry step: 16

 iSCC Total electronic   Diff electronic      SCC error    
    1   -0.83949967E+02    0.00000000E+00    0.23407601E-03
    2   -0.83951380E+02   -0.14128596E-02    0.22969989E-03
    3   -0.83951380E+02   -0.14181865E-08    0.10253720E-03
    4   -0.83951380E+02   -0.23621226E-07    0.10047222E-03
    5   -0.83951380E+02   -0.54782845E-10    0.19946865E-04
    6   -0.83951380E+02   -0.13501591E-08    0.18414743E-04
    7   -0.83951380E+02   -0.26290081E-10    0.71319823E-05

Total Energy:                      -81.4846986558 H        -2217.3115 eV
Extrapolated to 0K:                -81.4846986558 H        -2217.3115 eV
Total Mermin free energy:          -81.4846986558 H        -2217.3115 eV
Force related energy:              -81.4846986558 H        -2217.3115 eV

Volume:                              0.561190E+05 au^3   0.831598E+04 A^3
Pressure:                           -0.392835E-07 au    -0.115576E+07 Pa
>> Charges saved for restart in charges.bin

total energy  -8.1484699E+01 H       energy change -1.2752696E-05 H
gradient norm  4.7625937E-03 H/a0    max. gradient  1.7930650E-03 H/a0
step length    1.4928866E-02 a0      max. step      4.5628756E-03 a0

--------------------------------------------------------------------------------

***  Geometry step: 17

 iSCC Total electronic   Diff electronic      SCC error    
    1   -0.83951380E+02    0.00000000E+00    0.16598379E-03
    2   -0.83951111E+02    0.26884612E-03    0.16227158E-03
    3   -0.83951111E+02   -0.15270984E-08    0.63573934E-04
    4   -0.83951111E+02   -0.21401405E-07    0.62222616E-04
    5   -0.83951111E+02   -0.32954972E-10    0.12569574E-04
    6   -0.83951111E+02   -0.10941079E-08    0.11159371E-04
    7   -0.83951111E+02   -0.14892976E-10    0.44352299E-05

Total Energy:                      -81.4847085816 H        -2217.3117 eV
Extrapolated to 0K:                -81.4847085816 H        -2217.3117 eV
Total Mermin free energy:          -81.4847085816 H        -2217.3117 eV
Force related energy:              -81.4847085816 H        -2217.3117 eV

Volume:                              0.561218E+05 au^3   0.831640E+04 A^3
Pressure:                           -0.683171E-07 au    -0.200996E+07 Pa
>> Charges saved for restart in charges.bin

total energy  -8.1484709E+01 H       energy change -9.9257391E-06 H
gradient norm  2.1651248E-03 H/a0    max. gradient  6.9520729E-04 H/a0
step length    6.8935525E-03 a0      max. step      2.0235279E-03 a0

--------------------------------------------------------------------------------

***  Geometry step: 18

 iSCC Total electronic   Diff electronic      SCC error    
    1   -0.83951111E+02    0.00000000E+00    0.19918634E-03
    2   -0.83950779E+02    0.33223370E-03    0.19295972E-03
    3   -0.83950779E+02   -0.16715234E-08    0.54312534E-04
    4   -0.83950779E+02   -0.23929218E-07    0.53429374E-04
    5   -0.83950779E+02   -0.44835247E-10    0.11770842E-04
    6   -0.83950779E+02   -0.10384014E-08    0.10455427E-04
    7   -0.83950779E+02   -0.17649882E-10    0.49735438E-05

Total Energy:                      -81.4847137794 H        -2217.3119 eV
Extrapolated to 0K:                -81.4847137794 H        -2217.3119 eV
Total Mermin free energy:          -81.4847137794 H        -2217.3119 eV
Force related energy:              -81.4847137794 H        -2217.3119 eV

Volume:                              0.561239E+05 au^3   0.831670E+04 A^3
Pressure:                           -0.913438E-07 au    -0.268743E+07 Pa
>> Charges saved for restart in charges.bin

total energy  -8.1484714E+01 H       energy change -5.1977888E-06 H
gradient norm  1.6360695E-03 H/a0    max. gradient  4.2856433E-04 H/a0
step length    4.6828826E-03 a0      max. step      1.2224688E-03 a0

--------------------------------------------------------------------------------

***  Geometry step: 19

 iSCC Total electronic   Diff electronic      SCC error    
    1   -0.83950779E+02    0.00000000E+00    0.26372928E-03
    2   -0.83950619E+02    0.16064476E-03    0.25621201E-03
    3   -0.83950619E+02   -0.19668676E-08    0.64590007E-04
    4   -0.83950619E+02   -0.28223667E-07    0.63437614E-04
    5   -0.83950619E+02   -0.44920512E-10    0.14261442E-04
    6   -0.83950619E+02   -0.10182220E-08    0.13242753E-04
    7   -0.83950619E+02   -0.22424729E-10    0.62765096E-05

Total Energy:                      -81.4847173071 H        -2217.3120 eV
Extrapolated to 0K:                -81.4847173071 H        -2217.3120 eV
Total Mermin free energy:          -81.4847173071 H        -2217.3120 eV
Force related energy:              -81.4847173071 H        -2217.3120 eV

Volume:                              0.561245E+05 au^3   0.831679E+04 A^3
Pressure:                           -0.988430E-07 au    -0.290806E+07 Pa
>> Charges saved for restart in charges.bin

total energy  -8.1484717E+01 H       energy change -3.5277757E-06 H
gradient norm  1.7284735E-03 H/a0    max. gradient  7.3461399E-04 H/a0
step length    5.0921139E-03 a0      max. step      1.2283815E-03 a0

--------------------------------------------------------------------------------

***  Geometry step: 20

 iSCC Total electronic   Diff electronic      SCC error    
    1   -0.83950619E+02    0.00000000E+00    0.11691254E-03
    2   -0.83950149E+02    0.46987338E-03    0.11456307E-03
    3   -0.83950149E+02   -0.97614361E-10    0.31339967E-04
    4   -0.83950149E+02   -0.14899513E-08    0.30714512E-04
    5   -0.83950149E+02   -0.17521984E-10    0.64359129E-05

Total Energy:                      -81.4847178834 H        -2217.3120 eV
Extrapolated to 0K:                -81.4847178834 H        -2217.3120 eV
Total Mermin free energy:          -81.4847178834 H        -2217.3120 eV
Force related energy:              -81.4847178834 H        -2217.3120 eV

Volume:                              0.561243E+05 au^3   0.831676E+04 A^3
Pressure:                           -0.105202E-06 au    -0.309515E+07 Pa
>> Charges saved for restart in charges.bin

total energy  -8.1484718E+01 H       energy change -5.7623653E-07 H
gradient norm  2.2535479E-03 H/a0    max. gradient  9.3351190E-04 H/a0
step length    1.7284735E-03 a0      max. step      7.3461399E-04 a0

--------------------------------------------------------------------------------

***  Geometry step: 21

 iSCC Total electronic   Diff electronic      SCC error    
    1   -0.83950149E+02    0.00000000E+00    0.12910258E-03
    2   -0.83950869E+02   -0.72062306E-03    0.12534495E-03
    3   -0.83950869E+02   -0.82430063E-09    0.30518167E-04
    4   -0.83950869E+02   -0.12029460E-07    0.30008835E-04
    5   -0.83950869E+02   -0.13201884E-10    0.93938456E-05

Total Energy:                      -81.4847203888 H        -2217.3121 eV
Extrapolated to 0K:                -81.4847203888 H        -2217.3121 eV
Total Mermin free energy:          -81.4847203888 H        -2217.3121 eV
Force related energy:              -81.4847203888 H        -2217.3121 eV

Volume:                              0.561226E+05 au^3   0.831651E+04 A^3
Pressure:                           -0.783975E-07 au    -0.230653E+07 Pa
>> Charges saved for restart in charges.bin

total energy  -8.1484720E+01 H       energy change -2.5054493E-06 H
gradient norm  1.1130223E-03 H/a0    max. gradient  2.9590909E-04 H/a0
step length    5.1540190E-03 a0      max. step      1.2334482E-03 a0

--------------------------------------------------------------------------------

***  Geometry step: 22

 iSCC Total electronic   Diff electronic      SCC error    
    1   -0.83950869E+02    0.00000000E+00    0.10299579E-03
    2   -0.83951395E+02   -0.52562850E-03    0.10061619E-03
    3   -0.83951395E+02   -0.37131542E-09    0.28376651E-04
    4   -0.83951395E+02   -0.55928808E-08    0.27810237E-04
    5   -0.83951395E+02   -0.71480599E-11    0.35144312E-05

Total Energy:                      -81.4847218814 H        -2217.3121 eV
Extrapolated to 0K:                -81.4847218814 H        -2217.3121 eV
Total Mermin free energy:          -81.4847218814 H        -2217.3121 eV
Force related energy:              -81.4847218814 H        -2217.3121 eV

Volume:                              0.561205E+05 au^3   0.831621E+04 A^3
Pressure:                           -0.517506E-07 au    -0.152256E+07 Pa
>> Charges saved for restart in charges.bin

total energy  -8.1484722E+01 H       energy change -1.4925806E-06 H
gradient norm  9.7941485E-04 H/a0    max. gradient  2.9091452E-04 H/a0
step length    4.4324929E-03 a0      max. step      1.0033527E-03 a0

--------------------------------------------------------------------------------

***  Geometry step: 23

 iSCC Total electronic   Diff electronic      SCC error    
    1   -0.83951395E+02    0.00000000E+00    0.58020659E-04
    2   -0.83951670E+02   -0.27483760E-03    0.56934936E-04
    3   -0.83951670E+02   -0.17610091E-09    0.18612729E-04
    4   -0.83951670E+02   -0.27628602E-08    0.18224053E-04
    5   -0.83951670E+02   -0.63238303E-11    0.53561693E-05

Total Energy:                      -81.4847229818 H        -2217.3121 eV
Extrapolated to 0K:                -81.4847229818 H        -2217.3121 eV
Total Mermin free energy:          -81.4847229818 H        -2217.3121 eV
Force related energy:              -81.4847229818 H        -2217.3121 eV

Volume:                              0.561199E+05 au^3   0.831612E+04 A^3
Pressure:                           -0.419504E-07 au    -0.123422E+07 Pa
>> Charges saved for restart in charges.bin

total energy  -8.1484723E+01 H       energy change -1.1003597E-06 H
gradient norm  8.4357456E-04 H/a0    max. gradient  2.3012612E-04 H/a0
step length    3.1260625E-03 a0      max. step      7.4393874E-04 a0

--------------------------------------------------------------------------------

***  Geometry step: 24

 iSCC Total electronic   Diff electronic      SCC error    
    1   -0.83951670E+02    0.00000000E+00    0.86621836E-04
    2   -0.83951661E+02    0.84909148E-05    0.84864002E-04
    3   -0.83951661E+02   -0.23150903E-09    0.28193945E-04
    4   -0.83951661E+02   -0.43196735E-08    0.27580979E-04
    5   -0.83951661E+02   -0.15148771E-10    0.61987399E-05

Total Energy:                      -81.4847242485 H        -2217.3122 eV
Extrapolated to 0K:                -81.4847242485 H        -2217.3122 eV
Total Mermin free energy:          -81.4847242485 H        -2217.3122 eV
Force related energy:              -81.4847242485 H        -2217.3122 eV

Volume:                              0.561199E+05 au^3   0.831612E+04 A^3
Pressure:                           -0.421154E-07 au    -0.123908E+07 Pa
>> Charges saved for restart in charges.bin

total energy  -8.1484724E+01 H       energy change -1.2667466E-06 H
gradient norm  8.5707512E-04 H/a0    max. gradient  2.0379610E-04 H/a0
step length    4.0162243E-03 a0      max. step      9.1075864E-04 a0

--------------------------------------------------------------------------------

***  Geometry step: 25

 iSCC Total electronic   Diff electronic      SCC error    
    1   -0.83951661E+02    0.00000000E+00    0.79454826E-04
    2   -0.83951624E+02    0.37322761E-04    0.77804297E-04
    3   -0.83951624E+02   -0.13250201E-09    0.20454969E-04
    4   -0.83951624E+02   -0.23377140E-08    0.20008629E-04
    5   -0.83951624E+02   -0.10246026E-10    0.57221710E-05

Total Energy:                      -81.4847253123 H        -2217.3122 eV
Extrapolated to 0K:                -81.4847253123 H        -2217.3122 eV
Total Mermin free energy:          -81.4847253123 H        -2217.3122 eV
Force related energy:              -81.4847253123 H        -2217.3122 eV

Volume:                              0.561200E+05 au^3   0.831613E+04 A^3
Pressure:                           -0.432283E-07 au    -0.127182E+07 Pa
>> Charges saved for restart in charges.bin

total energy  -8.1484725E+01 H       energy change -1.0637525E-06 H
gradient norm  1.0278595E-03 H/a0    max. gradient  2.5586367E-04 H/a0
step length    4.1233749E-03 a0      max. step      1.0026290E-03 a0

--------------------------------------------------------------------------------

***  Geometry step: 26

 iSCC Total electronic   Diff electronic      SCC error    
    1   -0.83951624E+02    0.00000000E+00    0.10139767E-03
    2   -0.83951624E+02    0.21221892E-06    0.99211769E-04
    3   -0.83951624E+02   -0.24556357E-09    0.33442652E-04
    4   -0.83951624E+02   -0.37264698E-08    0.32608378E-04
    5   -0.83951624E+02   -0.17180923E-10    0.60950084E-05

Total Energy:                      -81.4847265789 H        -2217.3122 eV
Extrapolated to 0K:                -81.4847265789 H        -2217.3122 eV
Total Mermin free energy:          -81.4847265789 H        -2217.3122 eV
Force related energy:              -81.4847265789 H        -2217.3122 eV

Volume:                              0.561199E+05 au^3   0.831612E+04 A^3
Pressure:                           -0.419746E-07 au    -0.123494E+07 Pa
>> Charges saved for restart in charges.bin

total energy  -8.1484727E+01 H       energy change -1.2666693E-06 H
gradient norm  1.1901471E-03 H/a0    max. gradient  3.7846769E-04 H/a0
step length    5.9493399E-03 a0      max. step      1.5863337E-03 a0

--------------------------------------------------------------------------------

***  Geometry step: 27

 iSCC Total electronic   Diff electronic      SCC error    
    1   -0.83951624E+02    0.00000000E+00    0.59181439E-04
    2   -0.83951711E+02   -0.87334962E-04    0.57757914E-04
    3   -0.83951711E+02   -0.21444180E-09    0.21197207E-04
    4   -0.83951711E+02   -0.31642173E-08    0.20766424E-04
    5   -0.83951711E+02   -0.65085715E-11    0.57614608E-05

Total Energy:                      -81.4847278857 H        -2217.3123 eV
Extrapolated to 0K:                -81.4847278857 H        -2217.3123 eV
Total Mermin free energy:          -81.4847278857 H        -2217.3123 eV
Force related energy:              -81.4847278857 H        -2217.3123 eV

Volume:                              0.561194E+05 au^3   0.831604E+04 A^3
Pressure:                           -0.354838E-07 au    -0.104397E+07 Pa
>> Charges saved for restart in charges.bin

total energy  -8.1484728E+01 H       energy change -1.3067658E-06 H
gradient norm  8.9243945E-04 H/a0    max. gradient  2.5818099E-04 H/a0
step length    4.4124430E-03 a0      max. step      1.1604612E-03 a0

--------------------------------------------------------------------------------

***  Geometry step: 28

 iSCC Total electronic   Diff electronic      SCC error    
    1   -0.83951711E+02    0.00000000E+00    0.10711296E-03
    2   -0.83951991E+02   -0.27946288E-03    0.10448793E-03
    3   -0.83951991E+02   -0.36105519E-09    0.27540358E-04
    4   -0.83951991E+02   -0.56222973E-08    0.27059350E-04
    5   -0.83951991E+02   -0.13415047E-10    0.78594887E-05

Total Energy:                      -81.4847291656 H        -2217.3123 eV
Extrapolated to 0K:                -81.4847291656 H        -2217.3123 eV
Total Mermin free energy:          -81.4847291656 H        -2217.3123 eV
Force related energy:              -81.4847291656 H        -2217.3123 eV

Volume:                              0.561182E+05 au^3   0.831586E+04 A^3
Pressure:                           -0.200961E-07 au    -0.591248E+06 Pa
>> Charges saved for restart in charges.bin

total energy  -8.1484729E+01 H       energy change -1.2799179E-06 H
gradient norm  7.3512256E-04 H/a0    max. gradient  2.3026326E-04 H/a0
step length    5.1044258E-03 a0      max. step      1.3440684E-03 a0

--------------------------------------------------------------------------------

***  Geometry step: 29

 iSCC Total electronic   Diff electronic      SCC error    
    1   -0.83951991E+02    0.00000000E+00    0.72532171E-04
    2   -0.83951995E+02   -0.46309209E-05    0.70837083E-04
    3   -0.83951995E+02   -0.77562845E-10    0.19081134E-04
    4   -0.83951995E+02   -0.12515216E-08    0.18750082E-04
    5   -0.83951995E+02   -0.34390268E-11    0.61603873E-05

Total Energy:                      -81.4847297964 H        -2217.3123 eV
Extrapolated to 0K:                -81.4847297964 H        -2217.3123 eV
Total Mermin free energy:          -81.4847297964 H        -2217.3123 eV
Force related energy:              -81.4847297964 H        -2217.3123 eV

Volume:                              0.561184E+05 au^3   0.831589E+04 A^3
Pressure:                           -0.217699E-07 au    -0.640492E+06 Pa
>> Charges saved for restart in charges.bin

total energy  -8.1484730E+01 H       energy change -6.3081268E-07 H
gradient norm  7.4865111E-04 H/a0    max. gradient  1.8231170E-04 H/a0
step length    1.9768387E-03 a0      max. step      5.5678974E-04 a0

--------------------------------------------------------------------------------

***  Geometry step: 30

 iSCC Total electronic   Diff electronic      SCC error    
    1   -0.83951995E+02    0.00000000E+00    0.65338166E-04
    2   -0.83951975E+02    0.20429074E-04    0.63688349E-04
    3   -0.83951975E+02   -0.12458656E-09    0.30134435E-04
    4   -0.83951975E+02   -0.19378916E-08    0.29573453E-04
    5   -0.83951975E+02   -0.46895821E-11    0.64528617E-05

Total Energy:                      -81.4847305787 H        -2217.3123 eV
Extrapolated to 0K:                -81.4847305787 H        -2217.3123 eV
Total Mermin free energy:          -81.4847305787 H        -2217.3123 eV
Force related energy:              -81.4847305787 H        -2217.3123 eV

Volume:                              0.561186E+05 au^3   0.831592E+04 A^3
Pressure:                           -0.246326E-07 au    -0.724716E+06 Pa
>> Charges saved for restart in charges.bin

total energy  -8.1484731E+01 H       energy change -7.8229414E-07 H
gradient norm  9.2836485E-04 H/a0    max. gradient  2.9587814E-04 H/a0
step length    3.8884526E-03 a0      max. step      1.0515396E-03 a0

--------------------------------------------------------------------------------

***  Geometry step: 31

 iSCC Total electronic   Diff electronic      SCC error    
    1   -0.83951975E+02    0.00000000E+00    0.55157096E-04
    2   -0.83952008E+02   -0.33490220E-04    0.54014559E-04
    3   -0.83952008E+02   -0.65583095E-10    0.22044463E-04
    4   -0.83952008E+02   -0.11023076E-08    0.21588936E-04
    5   -0.83952008E+02   -0.47180038E-11    0.43814577E-05

Total Energy:                      -81.4847315460 H        -2217.3124 eV
Extrapolated to 0K:                -81.4847315460 H        -2217.3124 eV
Total Mermin free energy:          -81.4847315460 H        -2217.3124 eV
Force related energy:              -81.4847315460 H        -2217.3124 eV

Volume:                              0.561186E+05 au^3   0.831592E+04 A^3
Pressure:                           -0.237753E-07 au    -0.699492E+06 Pa
>> Charges saved for restart in charges.bin

total energy  -8.1484732E+01 H       energy change -9.6730170E-07 H
gradient norm  8.4387505E-04 H/a0    max. gradient  2.2582688E-04 H/a0
step length    5.4612378E-03 a0      max. step      1.2457267E-03 a0

--------------------------------------------------------------------------------

***  Geometry step: 32

 iSCC Total electronic   Diff electronic      SCC error    
    1   -0.83952008E+02    0.00000000E+00    0.71529569E-04
    2   -0.83952159E+02   -0.15061124E-03    0.69777527E-04
    3   -0.83952159E+02   -0.18127366E-09    0.23046559E-04
    4   -0.83952159E+02   -0.31509728E-08    0.22519423E-04
    5   -0.83952159E+02   -0.17720936E-10    0.61514196E-05

Total Energy:                      -81.4847326680 H        -2217.3124 eV
Extrapolated to 0K:                -81.4847326680 H        -2217.3124 eV
Total Mermin free energy:          -81.4847326680 H        -2217.3124 eV
Force related energy:              -81.4847326680 H        -2217.3124 eV

Volume:                              0.561180E+05 au^3   0.831584E+04 A^3
Pressure:                           -0.165078E-07 au    -0.485675E+06 Pa
>> Charges saved for restart in charges.bin

total energy  -8.1484733E+01 H       energy change -1.1219490E-06 H
gradient norm  6.9514195E-04 H/a0    max. gradient  1.8808851E-04 H/a0
step length    7.0721723E-03 a0      max. step      1.4453487E-03 a0

--------------------------------------------------------------------------------

***  Geometry step: 33

 iSCC Total electronic   Diff electronic      SCC error    
    1   -0.83952159E+02    0.00000000E+00    0.72449544E-04
    2   -0.83952262E+02   -0.10293016E-03    0.70225790E-04
    3   -0.83952262E+02   -0.28317970E-09    0.25655990E-04
    4   -0.83952262E+02   -0.40619881E-08    0.25173870E-04
    5   -0.83952262E+02   -0.85407237E-11    0.69791318E-05

Total Energy:                      -81.4847332321 H        -2217.3124 eV
Extrapolated to 0K:                -81.4847332321 H        -2217.3124 eV
Total Mermin free energy:          -81.4847332321 H        -2217.3124 eV
Force related energy:              -81.4847332321 H        -2217.3124 eV

Volume:                              0.561174E+05 au^3   0.831574E+04 A^3
Pressure:                           -0.851974E-08 au    -0.250659E+06 Pa
>> Charges saved for restart in charges.bin

total energy  -8.1484733E+01 H       energy change -5.6414514E-07 H
gradient norm  4.6885116E-04 H/a0    max. gradient  1.0975323E-04 H/a0
step length    1.8435870E-03 a0      max. step      4.1923381E-04 a0

--------------------------------------------------------------------------------

***  Geometry step: 34

 iSCC Total electronic   Diff electronic      SCC error    
    1   -0.83952262E+02    0.00000000E+00    0.67491339E-04
    2   -0.83952346E+02   -0.83809447E-04    0.65969426E-04
    3   -0.83952346E+02   -0.75928597E-10    0.19579658E-04
    4   -0.83952346E+02   -0.11995667E-08    0.19212707E-04
    5   -0.83952346E+02   -0.36379788E-11    0.57946769E-05

Total Energy:                      -81.4847334404 H        -2217.3124 eV
Extrapolated to 0K:                -81.4847334404 H        -2217.3124 eV
Total Mermin free energy:          -81.4847334404 H        -2217.3124 eV
Force related energy:              -81.4847334404 H        -2217.3124 eV

Volume:                              0.561169E+05 au^3   0.831567E+04 A^3
Pressure:                           -0.273126E-08 au    -0.803565E+05 Pa
>> Charges saved for restart in charges.bin

total energy  -8.1484733E+01 H       energy change -2.0824388E-07 H
gradient norm  3.9945733E-04 H/a0    max. gradient  1.0984310E-04 H/a0
step length    1.0044721E-03 a0      max. step      2.6632351E-04 a0

--------------------------------------------------------------------------------

***  Geometry step: 35

 iSCC Total electronic   Diff electronic      SCC error    
    1   -0.83952346E+02    0.00000000E+00    0.38635016E-04
    2   -0.83952363E+02   -0.17571354E-04    0.37741754E-04
    3   -0.83952363E+02   -0.39733550E-10    0.11258859E-04
    4   -0.83952363E+02   -0.63471361E-09    0.11088295E-04
    5   -0.83952363E+02   -0.17479351E-11    0.35503866E-05

Total Energy:                      -81.4847335329 H        -2217.3124 eV
Extrapolated to 0K:                -81.4847335329 H        -2217.3124 eV
Total Mermin free energy:          -81.4847335329 H        -2217.3124 eV
Force related energy:              -81.4847335329 H        -2217.3124 eV

Volume:                              0.561168E+05 au^3   0.831566E+04 A^3
Pressure:                           -0.153692E-08 au    -0.452179E+05 Pa
>> Charges saved for restart in charges.bin

total energy  -8.1484734E+01 H       energy change -9.2580137E-08 H
gradient norm  4.5026119E-04 H/a0    max. gradient  1.6087731E-04 H/a0
step length    9.7330321E-04 a0      max. step      3.0856168E-04 a0

--------------------------------------------------------------------------------

***  Geometry step: 36

 iSCC Total electronic   Diff electronic      SCC error    
    1   -0.83952363E+02    0.00000000E+00    0.17030053E-04
    2   -0.83952314E+02    0.49191992E-04    0.16641569E-04
    3   -0.83952314E+02   -0.66364692E-11    0.50421733E-05

Total Energy:                      -81.4847336269 H        -2217.3124 eV
Extrapolated to 0K:                -81.4847336269 H        -2217.3124 eV
Total Mermin free energy:          -81.4847336269 H        -2217.3124 eV
Force related energy:              -81.4847336269 H        -2217.3124 eV

Volume:                              0.561170E+05 au^3   0.831569E+04 A^3
Pressure:                           -0.416290E-08 au    -0.122477E+06 Pa
>> Charges saved for restart in charges.bin

total energy  -8.1484734E+01 H       energy change -9.3959954E-08 H
gradient norm  2.4393739E-04 H/a0    max. gradient  8.6768070E-05 H/a0
step length    3.2428044E-04 a0      max. step      8.4090872E-05 a0

Geometry converged

--------------------------------------------------------------------------------
DFTB+ running times                          cpu [s]             wall clock [s]
--------------------------------------------------------------------------------
Global initialisation                  +       0.00 (  0.0%)       0.03 (  0.1%)
Pre-SCC initialisation                 +      18.80 (  9.5%)       0.67 (  1.5%)
SCC                                    +     148.44 ( 75.1%)      36.57 ( 83.8%)
Post-SCC processing                    +      29.72 ( 15.0%)       6.31 ( 14.5%)
Post-geometry optimisation             +       0.75 (  0.4%)       0.04 (  0.1%)
--------------------------------------------------------------------------------
Missing                                +       0.00 (  0.0%)       0.00 (  0.0%)
Total                                  =     197.71 (100.0%)      43.62 (100.0%)
--------------------------------------------------------------------------------
