   84
Geometry Step: 0
    C     -4.39025000      1.00232000      0.16095700      3.93901677
    C     -4.37665000     -0.41682400      0.26753900      3.93901471
    C     -3.13815000     -1.11138000      0.36356800      3.93902120
    C     -1.91323000     -0.38682200      0.35269800      3.93901750
    C     -1.92684000      1.03236000      0.24657800      3.93901640
    C     -3.16536000      1.72694000      0.15086800      3.93902092
    C     -3.17914000      3.16024000      0.04437650      4.06582206
    C     -3.19086000      4.37696000     -0.04519180      4.06735576
    C     -3.20473000      5.81073000     -0.14924200      3.92771691
    C     -0.68982100      1.76414000      0.23610800      4.06582268
    C      0.36025400      2.38533000      0.22732400      4.06735388
    C      1.59751000      3.11728000      0.21717100      3.92771710
    C     -0.66242100     -1.08836000      0.44847500      4.06582407
    C      1.65054000     -2.38581000      0.62182100      3.92771822
    C     -3.12444000     -2.54455000      0.47189400      4.06582050
    C     -3.11282000     -3.76101000      0.56468600      4.06735789
    C     -5.61368000     -1.14859000      0.27824200      4.06582431
    C     -6.66377000     -1.76975000      0.28743800      4.06735357
    C     -5.64098000      1.70371000      0.06309060      4.06582492
    C     -6.70266000      2.29901000     -0.02093780      4.06735349
    C      1.66961000     -3.80693000      0.72764400      3.90599087
    C      2.90594000     -4.48046000      0.81661600      4.10078016
    C      4.10617000     -3.76353000      0.80166600      4.07544972
    C      4.09907000     -2.36920000      0.69879300      4.10078308
    C      2.88000000     -1.66513000      0.60816200      3.90598637
    C      0.34078500      5.25284000      0.01953900      4.08025298
    H      5.05494000     -4.29584000      0.87093200      0.92091413
    H      5.04024000     -1.82036000      0.68830100      0.91483578
    C     -3.09920000     -5.19429000      0.67550300      3.92771924
    C     -4.32317000     -5.92422000      0.69040300      3.90598617
    C     -4.29229000     -7.33023000      0.80102700      4.10077962
    C     -3.07253000     -8.00704000      0.89535000      4.07545141
    C     -1.86587000     -7.30097000      0.88114000      4.10077792
    C     -1.86164000     -5.89453000      0.77174000      3.90598965
    C     -7.89298000     -3.92254000      0.40838700      3.90598654
    C     -9.11595000     -4.62560000      0.41793200      4.10077707
    C    -10.32940000     -3.93802000      0.32039900      4.07544903
    C    -10.34900000     -2.54422000      0.21202400      4.10079156
    C     -9.14382000     -1.81104000      0.19960800      3.90599106
    C     -7.90106000     -2.50163000      0.29846200      3.92771666
    H     -0.92096500     -7.83842000      0.95503000      0.91483991
    H    -11.30030000     -2.01840000      0.13657200      0.91482963
    H     -9.11222000     -5.71192000      0.50193400      0.91483877
    C      1.58917000      4.53873000      0.11447200      3.90599093
    C      2.81211000      5.24188000      0.10612600      4.10077977
    C      4.02578000      4.55384000      0.19755900      4.07544848
    C      2.84049000      2.42623000      0.30981300      3.90598782
    C      4.04559000      3.15950000      0.29857500      4.10078318
    C     -7.97255000      4.42129000     -0.22917100      3.90599310
    C     -9.20850000      5.09405000     -0.32856800      4.10077341
    C    -10.40840000      4.37651000     -0.32188000      4.07544365
    C    -10.40140000      2.98239000     -0.21623600      4.10077539
    C     -9.18274000      2.27909000     -0.11517000      3.90598201
    C     -7.95354000      3.00031000     -0.12162100      3.92771886
    C      0.39938900     -1.68393000      0.52882700      4.06735317
    C     -4.44228000      6.51097000     -0.24552800      3.90598949
    C     -4.43839000      7.91810000     -0.34574900      4.10078375
    C     -1.98104000      6.54126000     -0.15623200      3.90598948
    C     -2.01224000      7.94796000     -0.25766200      4.10078074
    C     -3.23203000      8.62482000     -0.35111000      4.07544873
    H     -5.38330000      8.45557000     -0.41927900      0.91483478
    H     -1.07798000      8.50855000     -0.26298200      0.91483535
    H    -11.34240000      2.43309000     -0.21175400      0.91484730
    H     -3.06224000     -9.09376000      0.98048500      0.92091191
    H     -5.22679000     -7.89035000      0.81284700      0.91483991
    H      2.92296000     -5.56689000      0.89737100      0.91483610
    H     -9.22547000      6.18035000     -0.41110600      0.91483700
    H    -11.26760000     -4.49298000      0.32890000      0.92091349
    H    -11.35690000      4.90820000     -0.39947300      0.92092152
    H     -3.24259000      9.71209000     -0.42891200      0.92091528
    H      2.80817000      6.32861000      0.02774830      0.91483719
    H      4.96397000      5.10887000      0.19000800      0.92091384
    C     -9.18112000      0.84193000     -0.00582974      4.08025775
    C     -9.16955000     -0.37428600      0.08799130      4.08025241
    C      2.86647000      0.98895100      0.41443600      4.08025528
    C      2.87823000     -0.22766200      0.50293500      4.08025593
    C     -6.64479000     -4.63624000      0.50878300      4.08025613
    C     -5.58331000     -5.23144000      0.59279300      4.08025472
    C      0.43514500     -4.55075000      0.74385200      4.08025407
    C     -0.61487300     -5.17149000      0.75733100      4.08025348
    C     -6.73840000      5.16580000     -0.23618600      4.08025486
    C     -5.68872000      5.78721000     -0.24068100      4.08025597
    C     -0.72081000      5.84832000     -0.06080670      4.08025704
    H      4.99705000      2.63332000      0.36929000      0.91483656
