|===============================================================================
|
|  DFTB+ release 22.2
|
|  Copyright (C) 2006 - 2022  DFTB+ developers group
|
|===============================================================================
|
|  When publishing results obtained with DFTB+, please cite the following
|  reference:
|
|  * DFTB+, a software package for efficient approximate density functional
|    theory based atomistic simulations, J. Chem. Phys. 152, 124101 (2020).
|    [doi: 10.1063/1.5143190]
|
|  You should also cite additional publications crediting the parametrization
|  data you use. Please consult the documentation of the SK-files for the
|  references.
|
|===============================================================================

Reading input file 'dftb_in.hsd'
Parser version: 12

--------------------------------------------------------------------------------
Reading SK-files:
/home/usr/bin/dftb_plus/parameters/slako/3ob/3ob-3-1/C-C.skf
/home/usr/bin/dftb_plus/parameters/slako/3ob/3ob-3-1/C-H.skf
/home/usr/bin/dftb_plus/parameters/slako/3ob/3ob-3-1/H-H.skf
Done.


Processed input in HSD format written to 'dftb_pin.hsd'

Starting initialization...
--------------------------------------------------------------------------------
Chosen random seed:          292142218
Mode:                        Static calculation
Self consistent charges:     Yes
SCC-tolerance:                 0.100000E-04
Max. scc iterations:                   1000
Shell resolved Hubbard:      Yes
Spin polarisation:           No
Nr. of up electrons:           141.000000
Nr. of down electrons:         141.000000
Periodic boundaries:         No
Electronic solver:           Relatively robust
Mixer:                       Simple mixer
Mixing parameter:                  0.050000
Maximal SCC-cycles:                    1000
Electronic temperature:              0.100000E-07 H      0.272114E-06 eV
Initial charges:             Set automatically (system chrg:   0.000E+00)
Included shells:             C:  s, p
                             H:  s
Using Lennard-Jones dispersion corrections
Extra options:
                             Mulliken analysis

--------------------------------------------------------------------------------

***  Geometry step: 0

 iSCC Total electronic   Diff electronic      SCC error    
    1    0.00000000E+00    0.00000000E+00    0.12475729E+00
    2   -0.12163473E+03   -0.12163473E+03    0.11661330E+00
    3   -0.12163903E+03   -0.42978307E-02    0.10895012E+00
    4   -0.12164252E+03   -0.34972264E-02    0.10175068E+00
    5   -0.12164538E+03   -0.28575118E-02    0.94996039E-01
    6   -0.12164772E+03   -0.23434634E-02    0.88666022E-01
    7   -0.12164965E+03   -0.19282878E-02    0.82739815E-01
    8   -0.12165124E+03   -0.15914253E-02    0.77800996E-01
    9   -0.12165256E+03   -0.13169710E-02    0.73722702E-01
   10   -0.12165365E+03   -0.10925269E-02    0.69800093E-01
   11   -0.12165456E+03   -0.90836099E-03    0.66036116E-01
   12   -0.12165532E+03   -0.75678388E-03    0.62431900E-01
   13   -0.12165595E+03   -0.63168384E-03    0.58987085E-01
   14   -0.12165648E+03   -0.52817633E-03    0.55700097E-01
   15   -0.12165692E+03   -0.44233809E-03    0.52568383E-01
   16   -0.12165729E+03   -0.37100344E-03    0.49588613E-01
   17   -0.12165760E+03   -0.31160742E-03    0.46756847E-01
   18   -0.12165786E+03   -0.26206389E-03    0.44068682E-01
   19   -0.12165809E+03   -0.22067030E-03    0.41519370E-01
   20   -0.12165827E+03   -0.18603278E-03    0.39103918E-01
>> Charges saved for restart in charges.dat
   21   -0.12165843E+03   -0.15700696E-03    0.36817175E-01
   22   -0.12165856E+03   -0.13265078E-03    0.34653905E-01
   23   -0.12165867E+03   -0.11218696E-03    0.32608837E-01
   24   -0.12165877E+03   -0.94972682E-04    0.30676722E-01
   25   -0.12165885E+03   -0.80475316E-04    0.28852365E-01
   26   -0.12165892E+03   -0.68252680E-04    0.27130659E-01
   27   -0.12165897E+03   -0.57937048E-04    0.25506612E-01
   28   -0.12165902E+03   -0.49222122E-04    0.23975361E-01
   29   -0.12165907E+03   -0.41852383E-04    0.22532191E-01
   30   -0.12165910E+03   -0.35614371E-04    0.21172546E-01
   31   -0.12165913E+03   -0.30329521E-04    0.19892033E-01
   32   -0.12165916E+03   -0.25848272E-04    0.18686431E-01
   33   -0.12165918E+03   -0.22045205E-04    0.17551691E-01
   34   -0.12165920E+03   -0.18815024E-04    0.16483937E-01
   35   -0.12165921E+03   -0.16069230E-04    0.15479467E-01
   36   -0.12165923E+03   -0.13733365E-04    0.14534750E-01
   37   -0.12165924E+03   -0.11744718E-04    0.13646421E-01
   38   -0.12165925E+03   -0.10050424E-04    0.12811281E-01
   39   -0.12165926E+03   -0.86058707E-05    0.12026289E-01
   40   -0.12165927E+03   -0.73733801E-05    0.11288560E-01
>> Charges saved for restart in charges.dat
   41   -0.12165927E+03   -0.63210988E-05    0.10595358E-01
   42   -0.12165928E+03   -0.54220767E-05    0.99440907E-02
   43   -0.12165928E+03   -0.46534912E-05    0.93323048E-02
   44   -0.12165929E+03   -0.39960001E-05    0.87576792E-02
   45   -0.12165929E+03   -0.34331965E-05    0.82180199E-02
   46   -0.12165929E+03   -0.29511537E-05    0.77112546E-02
   47   -0.12165930E+03   -0.25380397E-05    0.72354261E-02
   48   -0.12165930E+03   -0.21837959E-05    0.67886878E-02
   49   -0.12165930E+03   -0.18798635E-05    0.63692979E-02
   50   -0.12165930E+03   -0.16189563E-05    0.59756140E-02
   51   -0.12165930E+03   -0.13948654E-05    0.56060882E-02
   52   -0.12165930E+03   -0.12022975E-05    0.52592623E-02
   53   -0.12165930E+03   -0.10367355E-05    0.49337631E-02
   54   -0.12165931E+03   -0.89432400E-06    0.46282974E-02
   55   -0.12165931E+03   -0.77176827E-06    0.43416484E-02
   56   -0.12165931E+03   -0.66625202E-06    0.40726708E-02
   57   -0.12165931E+03   -0.57536646E-06    0.38202875E-02
   58   -0.12165931E+03   -0.49704943E-06    0.35834851E-02
   59   -0.12165931E+03   -0.42953505E-06    0.33613109E-02
   60   -0.12165931E+03   -0.37130989E-06    0.31528693E-02
>> Charges saved for restart in charges.dat
   61   -0.12165931E+03   -0.32107656E-06    0.29573184E-02
   62   -0.12165931E+03   -0.27772207E-06    0.27738669E-02
   63   -0.12165931E+03   -0.24029059E-06    0.26017715E-02
   64   -0.12165931E+03   -0.20796212E-06    0.24403335E-02
   65   -0.12165931E+03   -0.18003099E-06    0.22888969E-02
   66   -0.12165931E+03   -0.15589170E-06    0.21468453E-02
   67   -0.12165931E+03   -0.13502265E-06    0.20136001E-02
   68   -0.12165931E+03   -0.11697543E-06    0.18886176E-02
   69   -0.12165931E+03   -0.10136391E-06    0.17713877E-02
   70   -0.12165931E+03   -0.87855511E-07    0.16614311E-02
   71   -0.12165931E+03   -0.76163744E-07    0.15582982E-02
   72   -0.12165931E+03   -0.66041679E-07    0.14615667E-02
   73   -0.12165931E+03   -0.57276154E-07    0.13708404E-02
   74   -0.12165931E+03   -0.49683891E-07    0.12857473E-02
   75   -0.12165931E+03   -0.43105828E-07    0.12059384E-02
   76   -0.12165931E+03   -0.37405599E-07    0.11310861E-02
   77   -0.12165931E+03   -0.32464811E-07    0.10608832E-02
   78   -0.12165931E+03   -0.28181333E-07    0.99504113E-03
   79   -0.12165931E+03   -0.24466857E-07    0.93328937E-03
   80   -0.12165931E+03   -0.21245540E-07    0.87537404E-03
>> Charges saved for restart in charges.dat
   81   -0.12165931E+03   -0.18450990E-07    0.82105695E-03
   82   -0.12165931E+03   -0.16026476E-07    0.77011465E-03
   83   -0.12165931E+03   -0.13922389E-07    0.72233752E-03
   84   -0.12165931E+03   -0.12096393E-07    0.67752892E-03
   85   -0.12165931E+03   -0.10511116E-07    0.63550440E-03
   86   -0.12165931E+03   -0.91348227E-08    0.59609094E-03
   87   -0.12165931E+03   -0.79397182E-08    0.55912626E-03
   88   -0.12165931E+03   -0.69018853E-08    0.52445812E-03
   89   -0.12165931E+03   -0.60003771E-08    0.49194376E-03
   90   -0.12165931E+03   -0.52171600E-08    0.46144927E-03
   91   -0.12165931E+03   -0.45368012E-08    0.43284905E-03
   92   -0.12165931E+03   -0.39453880E-08    0.40602532E-03
   93   -0.12165931E+03   -0.34316514E-08    0.38086760E-03
   94   -0.12165931E+03   -0.29850753E-08    0.35727228E-03
   95   -0.12165931E+03   -0.25967495E-08    0.33514221E-03
   96   -0.12165931E+03   -0.22591706E-08    0.31438625E-03
   97   -0.12165931E+03   -0.19658586E-08    0.29491896E-03
   98   -0.12165931E+03   -0.17105748E-08    0.27666019E-03
   99   -0.12165931E+03   -0.14886581E-08    0.25953479E-03
  100   -0.12165931E+03   -0.12957173E-08    0.24347227E-03
>> Charges saved for restart in charges.dat
  101   -0.12165931E+03   -0.11278019E-08    0.22840655E-03
  102   -0.12165931E+03   -0.98167163E-09    0.21427564E-03
  103   -0.12165931E+03   -0.85459817E-09    0.20102142E-03
  104   -0.12165931E+03   -0.74417983E-09    0.18858938E-03
  105   -0.12165931E+03   -0.64788708E-09    0.17692841E-03
  106   -0.12165931E+03   -0.56415672E-09    0.16599057E-03
  107   -0.12165931E+03   -0.49132609E-09    0.15573092E-03
  108   -0.12165931E+03   -0.42790305E-09    0.14610731E-03
  109   -0.12165931E+03   -0.37263703E-09    0.13708021E-03
  110   -0.12165931E+03   -0.32467540E-09    0.12861254E-03
  111   -0.12165931E+03   -0.28278180E-09    0.12066956E-03
  112   -0.12165931E+03   -0.24627411E-09    0.11321867E-03
  113   -0.12165931E+03   -0.21471180E-09    0.10622930E-03
  114   -0.12165931E+03   -0.18702906E-09    0.99672777E-04
  115   -0.12165931E+03   -0.16294166E-09    0.93522230E-04
  116   -0.12165931E+03   -0.14196644E-09    0.87752448E-04
  117   -0.12165931E+03   -0.12377654E-09    0.82339792E-04
  118   -0.12165931E+03   -0.10786039E-09    0.77262094E-04
  119   -0.12165931E+03   -0.93990593E-10    0.72498563E-04
  120   -0.12165931E+03   -0.81953999E-10    0.68029744E-04
>> Charges saved for restart in charges.dat
  121   -0.12165931E+03   -0.71381123E-10    0.63837341E-04
  122   -0.12165931E+03   -0.62300387E-10    0.59904172E-04
  123   -0.12165931E+03   -0.54257043E-10    0.56214158E-04
  124   -0.12165931E+03   -0.47421622E-10    0.52752221E-04
  125   -0.12165931E+03   -0.41211479E-10    0.49504218E-04
  126   -0.12165931E+03   -0.35996095E-10    0.46456887E-04
  127   -0.12165931E+03   -0.31391778E-10    0.43597791E-04
  128   -0.12165931E+03   -0.27441160E-10    0.40915265E-04
  129   -0.12165931E+03   -0.23831603E-10    0.38398368E-04
  130   -0.12165931E+03   -0.20918378E-10    0.36036841E-04
  131   -0.12165931E+03   -0.18118840E-10    0.33821062E-04
  132   -0.12165931E+03   -0.15788260E-10    0.31742004E-04
  133   -0.12165931E+03   -0.13784529E-10    0.29791204E-04
  134   -0.12165931E+03   -0.12136070E-10    0.27960722E-04
  135   -0.12165931E+03   -0.10501822E-10    0.26243113E-04
  136   -0.12165931E+03   -0.92086339E-11    0.24631393E-04
  137   -0.12165931E+03   -0.80007112E-11    0.23119012E-04
  138   -0.12165931E+03   -0.70059514E-11    0.21699825E-04
  139   -0.12165931E+03   -0.61248784E-11    0.20368071E-04
  140   -0.12165931E+03   -0.53148597E-11    0.19118343E-04
>> Charges saved for restart in charges.dat
  141   -0.12165931E+03   -0.46327386E-11    0.17945572E-04
  142   -0.12165931E+03   -0.40500936E-11    0.16845003E-04
  143   -0.12165931E+03   -0.36095571E-11    0.15812175E-04
  144   -0.12165931E+03   -0.30979663E-11    0.14842903E-04
  145   -0.12165931E+03   -0.26716407E-11    0.13933263E-04
  146   -0.12165931E+03   -0.22737368E-11    0.13079572E-04
  147   -0.12165931E+03   -0.21316282E-11    0.12278378E-04
  148   -0.12165931E+03   -0.18332003E-11    0.11526440E-04
  149   -0.12165931E+03   -0.15631940E-11    0.10820720E-04
  150   -0.12165931E+03   -0.13358203E-11    0.10158366E-04
  151   -0.12165931E+03   -0.11795009E-11    0.95367047E-05
>> Charges saved for restart in charges.dat

Total Energy:                     -118.4941784949 H        -3224.3907 eV
Extrapolated to 0K:               -118.4941784949 H        -3224.3907 eV
Total Mermin free energy:         -118.4941784949 H        -3224.3907 eV
Force related energy:             -118.4941784949 H        -3224.3907 eV


--------------------------------------------------------------------------------
DFTB+ running times                          cpu [s]             wall clock [s]
--------------------------------------------------------------------------------
Global initialisation                  +       0.00 (  0.0%)       0.03 (  0.1%)
Pre-SCC initialisation                 +       0.06 (  0.1%)       0.01 (  0.0%)
SCC                                    +      89.82 ( 99.9%)      25.32 ( 99.7%)
Post-geometry optimisation             +       0.00 (  0.0%)       0.04 (  0.1%)
--------------------------------------------------------------------------------
Missing                                +       0.00 (  0.0%)       0.00 (  0.0%)
Total                                  =      89.89 (100.0%)      25.40 (100.0%)
--------------------------------------------------------------------------------
