  132
Geometry Step: 0
    C     -3.47929000      3.36870000     -0.14151900      3.93999574
    C     -3.44786000      1.94740000     -0.26425900      3.93998834
    C     -2.22174000      1.24222000     -0.07585700      3.94001614
    C     -1.02786000      1.95787000      0.23845300      3.94000568
    C     -1.06065000      3.37857000      0.36743700      3.93998112
    C     -2.28618000      4.08402000      0.17617400      3.94000018
    C     -2.18951000     -0.18341600     -0.19830800      4.06995224
    C     -2.15925000     -1.40828000     -0.29806700      3.99285101
    C     -2.12638000     -2.77602000     -0.40708500      4.00518724
    C     -2.09601000     -4.00591000     -0.50047100      4.00007389
    C     -2.06327000     -5.37436000     -0.60304900      3.99866671
    C     -2.03433000     -6.59997000     -0.69124000      4.07026478
    C     -2.00017000     -8.02746000     -0.79674600      3.93121685
    C     -4.64708000      1.22862000     -0.57079300      4.06996699
    C     -5.67879000      0.60931200     -0.82238100      3.99282785
    C     -6.83092000     -0.08424690     -1.09707000      4.00519322
    C     -7.86672000     -0.71091200     -1.33534000      4.00006511
    C     -9.02057000     -1.40876000     -1.59241000      3.99866880
    C    -10.05340000     -2.03630000     -1.81675000      4.07025361
    C    -11.26110000     -2.76363000     -2.06683000      3.93122050
    C     -4.70775000      4.07662000     -0.33699600      4.06995530
    C     -5.76229000      4.68374000     -0.51162600      3.99284371
    C     -6.93898000      5.36079000     -0.71322800      4.00519057
    C     -7.99646000      5.96803000     -0.90094300      4.00007146
    C     -9.17118000      6.64361000     -1.11960000      3.99866425
    C    -10.22280000      7.24729000     -1.32051000      4.07028109
    C    -11.44310000      7.95333000     -1.57032000      3.93120890
    C     -2.31990000      5.50892000      0.30631900      4.06995336
    C     -2.35184000      6.73236000      0.42177500      3.99284785
    C     -2.38898000      8.09796000      0.55338700      4.00518856
    C     -2.42490000      9.32530000      0.67408400      4.00007134
    C     -2.46653000     10.69030000      0.81263400      3.99866677
    C     -2.50620000     11.91220000      0.93917600      4.07027732
    C      0.13425800      4.09617000      0.69290800      4.06996577
    C      1.15650000      4.71517000      0.98117800      3.99282851
    C      2.29684000      5.40597000      1.30714000      4.00519488
    C      3.31910000      6.02888000      1.60602000      4.00006575
    C      4.45669000      6.71898000      1.94369000      3.99866214
    C      5.47465000      7.33584000      2.25034000      4.07026573
    C      6.66016000      8.05252000      2.61245000      3.93122374
    C      0.20230800      1.25076000      0.42635000      4.06995540
    C      1.26049000      0.64571200      0.58566200      3.99284521
    C      2.44321000     -0.02846730      0.76016200      4.00518675
    C      3.50824000     -0.63192000      0.91475200      4.00007710
    C      4.69393000     -1.30345000      1.08074000      3.99865884
    C      5.75633000     -1.90403000      1.22701000      4.07027235
    C      6.99552000     -2.60323000      1.38724000      3.93121374
    C     -3.19777000     -8.75867000     -1.06513000      3.90734704
    C     -3.14433000    -10.16570000     -1.16855000      4.09741432
    C     -1.93196000    -10.84300000     -1.00898000      4.07231714
    C     -0.75337800    -10.13980000     -0.74355900      4.09740150
    C     -0.76828100     -8.73228000     -0.63377500      3.90734989
    C    -12.49360000     -2.06733000     -2.26008000      3.90733339
    C    -13.67640000     -2.80087000     -2.49682000      4.09741895
    C    -11.24470000     -4.19105000     -2.12204000      3.90737028
    C    -13.64730000     -4.19767000     -2.54357000      4.07229655
    C    -12.44760000     -4.89107000     -2.35990000      4.09740040
    C      7.04611000     -4.02298000      1.23609000      3.90733360
    C      8.27834000     -4.69462000      1.39041000      4.09742470
    C      9.44222000     -3.98113000      1.69108000      4.07232115
    C      9.40586000     -2.59226000      1.84500000      4.09738684
    H    -14.73170000      7.40847000     -2.42126000      0.91112156
    H    -14.56830000     -4.75107000     -2.72623000      0.91764998
    H    -14.61710000     -2.27156000     -2.64338000      0.91112931
    H      0.18503300    -10.67880000     -0.61943600      0.91112879
    H    -12.43710000     -5.97956000     -2.40044000      0.91113437
    H     -1.90557000    -11.92940000     -1.09131000      0.91763920
    C      8.19199000     -1.88666000      1.69686000      3.90735191
    C      5.85153000     -4.76050000      0.93246400      4.07818118
    H     10.38650000     -4.51269000      1.80756000      0.91764073
    H     10.31910000     -2.04725000      2.08073000      0.91113648
    C    -11.47940000      9.37921000     -1.48891000      3.90733970
    C    -12.68910000     10.05910000     -1.74913000      4.09742415
    C    -13.84510000      9.34754000     -2.08296000      4.07232756
    C    -13.82410000      7.95207000     -2.16189000      4.09740162
    C    -12.63290000      7.23815000     -1.90757000      3.90734496
    C     -3.77220000     14.04440000      0.87284200      3.90734994
    C     -3.79838000     15.44710000      1.03129000      4.09739455
    C     -2.64198000     16.14110000      1.39895000      4.07234435
    C     -1.44104000     15.45910000      1.61538000      4.09741308
    C     -1.37698000     14.05660000      1.46677000      3.90732772
    C      6.61793000      9.46860000      2.79656000      3.90734538
    C      7.79618000     10.15780000      3.15727000      4.09741925
    C      8.99777000      9.46512000      3.33190000      4.07232177
    C      9.05313000      8.07980000      3.15336000      4.09739837
    C      7.89465000      7.35692000      2.79464000      3.90734120
    H      8.31921000     -5.77689000      1.27392000      0.91113205
    H      7.76544000     11.23730000      3.29941000      0.91111999
    H      9.89967000     10.01020000      3.60977000      0.91763304
    H      9.99532000      7.55100000      3.29194000      0.91112810
    H     -4.72833000     15.98950000      0.86552600      0.91113051
    H     -2.67711000     17.22380000      1.51808000      0.91762501
    H    -12.71850000     11.14630000     -1.68886000      0.91113750
    H    -14.77170000      9.88557000     -2.28212000      0.91763906
    H     -0.54635500     16.01090000      1.90106000      0.91112863
    C    -12.52760000     -0.63211100     -2.21496000      4.07815526
    C    -12.54840000      0.59583600     -2.17954000      4.00163621
    C    -12.57010000      1.96995000     -2.13442000      4.00523812
    C    -12.58670000      3.20268000     -2.09234000      4.00524186
    C    -12.60480000      4.57648000     -2.03677000      4.00166628
    C    -12.61810000      5.80388000     -1.98346000      4.07812526
    C    -10.29480000     10.11400000     -1.14237000      4.07815882
    C     -9.27955000     10.73550000     -0.83803800      4.00162153
    C     -8.14200000     11.42720000     -0.49384800      4.00526243
    C     -7.12030000     12.04260000     -0.17889900      4.00521955
    C     -5.98167000     12.72740000      0.17536400      4.00167740
    C     -4.96355000     13.33590000      0.49604300      4.07810935
    C     -0.14089800     13.35990000      1.69001000      4.07814966
    C     -2.55165000     13.33510000      1.09191000      3.93121739
    C      0.91376600     12.75820000      1.87772000      4.00163749
    C      2.09402000     12.08270000      2.08155000      4.00524766
    C      3.15270000     11.47480000      2.25887000      4.00523874
    C      4.33285000     10.79520000      2.44897000      4.00165717
    C      5.38675000     10.18540000      2.61347000      4.07814103
    C      7.95589000      5.93301000      2.61624000      4.07813110
    C      8.00318000      4.71441000      2.46680000      4.00166915
    C      8.05100000      3.35013000      2.30185000      4.00524813
    C      8.08976000      2.12575000      2.15683000      4.00523617
    C      8.12935000      0.76048100      1.99805000      4.00169256
    C      8.15992000     -0.45971000      1.85760000      4.07810637
    C    -10.01330000     -4.90801000     -1.94169000      4.07811190
    C     -8.95617000     -5.51779000     -1.79972000      4.00168212
    C     -7.77018000     -6.19560000     -1.64260000      4.00524208
    C     -6.70350000     -6.80058000     -1.50910000      4.00524183
    C     -5.51267000     -7.47135000     -1.35845000      4.00165764
    C     -4.44641000     -8.06732000     -1.22639000      4.07814068
    C      0.44489700     -8.01452000     -0.35784900      4.07812243
    C      1.47981000     -7.39762000     -0.11711800      4.00166833
    C      2.63590000     -6.70455000      0.15469800      4.00522829
    C      3.67183000     -6.08181000      0.40112500      4.00525271
    C      4.82371000     -5.38480000      0.68064500      4.00161381
    H     -4.05641000    -10.72470000     -1.37380000      0.91112432
