|===============================================================================
|
|  DFTB+ release 22.2
|
|  Copyright (C) 2006 - 2022  DFTB+ developers group
|
|===============================================================================
|
|  When publishing results obtained with DFTB+, please cite the following
|  reference:
|
|  * DFTB+, a software package for efficient approximate density functional
|    theory based atomistic simulations, J. Chem. Phys. 152, 124101 (2020).
|    [doi: 10.1063/1.5143190]
|
|  You should also cite additional publications crediting the parametrization
|  data you use. Please consult the documentation of the SK-files for the
|  references.
|
|===============================================================================

Reading input file 'dftb_in.hsd'
Parser version: 12

--------------------------------------------------------------------------------
Reading SK-files:
/home/usr/bin/dftb_plus/parameters/slako/3ob/3ob-3-1/C-C.skf
/home/usr/bin/dftb_plus/parameters/slako/3ob/3ob-3-1/C-H.skf
/home/usr/bin/dftb_plus/parameters/slako/3ob/3ob-3-1/H-H.skf
Done.


Processed input in HSD format written to 'dftb_pin.hsd'

Starting initialization...
--------------------------------------------------------------------------------
Chosen random seed:          292222547
Mode:                        Static calculation
Self consistent charges:     Yes
SCC-tolerance:                 0.100000E-04
Max. scc iterations:                   1000
Shell resolved Hubbard:      Yes
Spin polarisation:           No
Nr. of up electrons:           237.000000
Nr. of down electrons:         237.000000
Periodic boundaries:         No
Electronic solver:           Relatively robust
Mixer:                       Simple mixer
Mixing parameter:                  0.050000
Maximal SCC-cycles:                    1000
Electronic temperature:              0.100000E-07 H      0.272114E-06 eV
Initial charges:             Set automatically (system chrg:   0.000E+00)
Included shells:             C:  s, p
                             H:  s
Using Lennard-Jones dispersion corrections
Extra options:
                             Mulliken analysis

--------------------------------------------------------------------------------

***  Geometry step: 0

 iSCC Total electronic   Diff electronic      SCC error    
    1    0.00000000E+00    0.00000000E+00    0.13254241E+00
    2   -0.20603194E+03   -0.20603194E+03    0.11950840E+00
    3   -0.20604456E+03   -0.12619273E-01    0.11009772E+00
    4   -0.20605321E+03   -0.86503247E-02    0.10158015E+00
    5   -0.20605922E+03   -0.60112252E-02    0.93853230E-01
    6   -0.20606346E+03   -0.42375108E-02    0.86827664E-01
    7   -0.20606649E+03   -0.30322296E-02    0.80425660E-01
    8   -0.20606870E+03   -0.22036975E-02    0.74780728E-01
    9   -0.20607032E+03   -0.16271255E-02    0.70954931E-01
   10   -0.20607155E+03   -0.12206292E-02    0.67255542E-01
   11   -0.20607248E+03   -0.93006313E-03    0.63690904E-01
   12   -0.20607319E+03   -0.71934729E-03    0.60266348E-01
   13   -0.20607376E+03   -0.56424831E-03    0.56984784E-01
   14   -0.20607421E+03   -0.44835382E-03    0.53847200E-01
   15   -0.20607457E+03   -0.36044950E-03    0.50853019E-01
   16   -0.20607486E+03   -0.29279957E-03    0.48000472E-01
   17   -0.20607510E+03   -0.24001278E-03    0.45286853E-01
   18   -0.20607530E+03   -0.19829011E-03    0.42708733E-01
   19   -0.20607546E+03   -0.16492255E-03    0.40262146E-01
   20   -0.20607560E+03   -0.13795396E-03    0.37942932E-01
>> Charges saved for restart in charges.dat
   21   -0.20607572E+03   -0.11595302E-03    0.35746257E-01
   22   -0.20607582E+03   -0.97858120E-04    0.33667292E-01
   23   -0.20607590E+03   -0.82870945E-04    0.31701145E-01
   24   -0.20607597E+03   -0.70382910E-04    0.29842895E-01
   25   -0.20607603E+03   -0.59923882E-04    0.28087638E-01
   26   -0.20607608E+03   -0.51126063E-04    0.26430533E-01
   27   -0.20607612E+03   -0.43698305E-04    0.24866828E-01
   28   -0.20607616E+03   -0.37407637E-04    0.23391887E-01
   29   -0.20607619E+03   -0.32065817E-04    0.22001208E-01
   30   -0.20607622E+03   -0.27519426E-04    0.20690436E-01
   31   -0.20607624E+03   -0.23642474E-04    0.19455373E-01
   32   -0.20607626E+03   -0.20330814E-04    0.18291982E-01
   33   -0.20607628E+03   -0.17497867E-04    0.17196392E-01
   34   -0.20607630E+03   -0.15071305E-04    0.16164901E-01
   35   -0.20607631E+03   -0.12990451E-04    0.15193970E-01
   36   -0.20607632E+03   -0.11204227E-04    0.14280227E-01
   37   -0.20607633E+03   -0.96694991E-05    0.13420463E-01
   38   -0.20607634E+03   -0.83497471E-05    0.12611623E-01
   39   -0.20607635E+03   -0.72139827E-05    0.11850810E-01
   40   -0.20607635E+03   -0.62358589E-05    0.11135272E-01
>> Charges saved for restart in charges.dat
   41   -0.20607636E+03   -0.53929362E-05    0.10462402E-01
   42   -0.20607636E+03   -0.46660763E-05    0.98297315E-02
   43   -0.20607637E+03   -0.40389314E-05    0.92349238E-02
   44   -0.20607637E+03   -0.34975240E-05    0.86757693E-02
   45   -0.20607637E+03   -0.30298886E-05    0.81501795E-02
   46   -0.20607638E+03   -0.26257719E-05    0.76561815E-02
   47   -0.20607638E+03   -0.22763805E-05    0.71919128E-02
   48   -0.20607638E+03   -0.19741676E-05    0.67556156E-02
   49   -0.20607638E+03   -0.17126482E-05    0.63456319E-02
   50   -0.20607638E+03   -0.14862496E-05    0.59604109E-02
   51   -0.20607638E+03   -0.12901774E-05    0.55984646E-02
   52   -0.20607639E+03   -0.11203038E-05    0.52584038E-02
   53   -0.20607639E+03   -0.97307449E-06    0.49389204E-02
   54   -0.20607639E+03   -0.84542563E-06    0.46387823E-02
   55   -0.20607639E+03   -0.73471591E-06    0.43568292E-02
   56   -0.20607639E+03   -0.63866582E-06    0.40919690E-02
   57   -0.20607639E+03   -0.55530816E-06    0.38431737E-02
   58   -0.20607639E+03   -0.48294399E-06    0.36094761E-02
   59   -0.20607639E+03   -0.42010464E-06    0.33899660E-02
   60   -0.20607639E+03   -0.36552180E-06    0.31837874E-02
>> Charges saved for restart in charges.dat
   61   -0.20607639E+03   -0.31809734E-06    0.29901350E-02
   62   -0.20607639E+03   -0.27688185E-06    0.28082516E-02
   63   -0.20607639E+03   -0.24105390E-06    0.26374252E-02
   64   -0.20607639E+03   -0.20990106E-06    0.24769862E-02
   65   -0.20607639E+03   -0.18280736E-06    0.23263053E-02
   66   -0.20607639E+03   -0.15923885E-06    0.21847909E-02
   67   -0.20607639E+03   -0.13873228E-06    0.20518869E-02
   68   -0.20607639E+03   -0.12088603E-06    0.19270708E-02
   69   -0.20607639E+03   -0.10535186E-06    0.18098513E-02
   70   -0.20607639E+03   -0.91827872E-07    0.16997671E-02
   71   -0.20607639E+03   -0.80051649E-07    0.15963843E-02
   72   -0.20607639E+03   -0.69795448E-07    0.14992956E-02
   73   -0.20607639E+03   -0.60861652E-07    0.14081182E-02
   74   -0.20607639E+03   -0.53078253E-07    0.13224925E-02
   75   -0.20607639E+03   -0.46296037E-07    0.12420806E-02
   76   -0.20607639E+03   -0.40385572E-07    0.11665651E-02
   77   -0.20607639E+03   -0.35234137E-07    0.10956479E-02
   78   -0.20607639E+03   -0.30742740E-07    0.10290490E-02
   79   -0.20607639E+03   -0.26827394E-07    0.96650547E-03
   80   -0.20607639E+03   -0.23413037E-07    0.90777018E-03
>> Charges saved for restart in charges.dat
   81   -0.20607639E+03   -0.20435351E-07    0.85261113E-03
   82   -0.20607639E+03   -0.17838403E-07    0.80081044E-03
   83   -0.20607639E+03   -0.15572880E-07    0.75216345E-03
   84   -0.20607639E+03   -0.13596463E-07    0.70647798E-03
   85   -0.20607639E+03   -0.11871862E-07    0.66357353E-03
   86   -0.20607639E+03   -0.10367017E-07    0.62328060E-03
   87   -0.20607639E+03   -0.90539913E-08    0.58544002E-03
   88   -0.20607639E+03   -0.79074312E-08    0.54990233E-03
   89   -0.20607639E+03   -0.69070722E-08    0.51652714E-03
   90   -0.20607639E+03   -0.60338436E-08    0.48518265E-03
   91   -0.20607639E+03   -0.52711187E-08    0.45574510E-03
   92   -0.20607639E+03   -0.46053970E-08    0.42809824E-03
   93   -0.20607639E+03   -0.40238604E-08    0.40213296E-03
   94   -0.20607639E+03   -0.35162486E-08    0.37774675E-03
   95   -0.20607639E+03   -0.30727563E-08    0.35484340E-03
   96   -0.20607639E+03   -0.26854821E-08    0.33333254E-03
   97   -0.20607639E+03   -0.23471216E-08    0.31312932E-03
   98   -0.20607639E+03   -0.20515643E-08    0.29415407E-03
   99   -0.20607639E+03   -0.17934099E-08    0.27633198E-03
  100   -0.20607639E+03   -0.15676278E-08    0.25959281E-03
>> Charges saved for restart in charges.dat
  101   -0.20607639E+03   -0.13705517E-08    0.24387058E-03
  102   -0.20607639E+03   -0.11983730E-08    0.22910337E-03
  103   -0.20607639E+03   -0.10478516E-08    0.21523301E-03
  104   -0.20607639E+03   -0.91628749E-09    0.20220490E-03
  105   -0.20607639E+03   -0.80126483E-09    0.18996776E-03
  106   -0.20607639E+03   -0.70079409E-09    0.17847343E-03
  107   -0.20607639E+03   -0.61262995E-09    0.16767671E-03
  108   -0.20607639E+03   -0.53609028E-09    0.15753514E-03
  109   -0.20607639E+03   -0.46884452E-09    0.14800885E-03
  110   -0.20607639E+03   -0.41006842E-09    0.13906041E-03
  111   -0.20607639E+03   -0.35893777E-09    0.13065466E-03
  112   -0.20607639E+03   -0.31377567E-09    0.12275860E-03
  113   -0.20607639E+03   -0.27461056E-09    0.11534124E-03
  114   -0.20607639E+03   -0.24039082E-09    0.10837346E-03
  115   -0.20607639E+03   -0.21020696E-09    0.10182794E-03
  116   -0.20607639E+03   -0.18397373E-09    0.95679011E-04
  117   -0.20607639E+03   -0.16092372E-09    0.89902567E-04
  118   -0.20607639E+03   -0.14108537E-09    0.84475976E-04
  119   -0.20607639E+03   -0.12332180E-09    0.79377987E-04
  120   -0.20607639E+03   -0.10786039E-09    0.74588638E-04
>> Charges saved for restart in charges.dat
  121   -0.20607639E+03   -0.94502184E-10    0.70089186E-04
  122   -0.20607639E+03   -0.82678753E-10    0.65862030E-04
  123   -0.20607639E+03   -0.72503781E-10    0.61890639E-04
  124   -0.20607639E+03   -0.63295147E-10    0.58159489E-04
  125   -0.20607639E+03   -0.55507599E-10    0.54654002E-04
  126   -0.20607639E+03   -0.48601123E-10    0.51360485E-04
  127   -0.20607639E+03   -0.42660986E-10    0.48266080E-04
  128   -0.20607639E+03   -0.37090331E-10    0.45358712E-04
  129   -0.20607639E+03   -0.32656544E-10    0.42627039E-04
  130   -0.20607639E+03   -0.28677505E-10    0.40060410E-04
  131   -0.20607639E+03   -0.24982683E-10    0.37648820E-04
  132   -0.20607639E+03   -0.21884716E-10    0.35382874E-04
  133   -0.20607639E+03   -0.19127810E-10    0.33253748E-04
  134   -0.20607639E+03   -0.16939339E-10    0.31253153E-04
  135   -0.20607639E+03   -0.14722445E-10    0.29373305E-04
  136   -0.20607639E+03   -0.12818191E-10    0.27606893E-04
  137   -0.20607639E+03   -0.11425527E-10    0.25947049E-04
  138   -0.20607639E+03   -0.97770680E-11    0.24387324E-04
  139   -0.20607639E+03   -0.87538865E-11    0.22921657E-04
  140   -0.20607639E+03   -0.76170181E-11    0.21544359E-04
>> Charges saved for restart in charges.dat
  141   -0.20607639E+03   -0.66791017E-11    0.20250084E-04
  142   -0.20607639E+03   -0.57696070E-11    0.19033812E-04
  143   -0.20607639E+03   -0.52580162E-11    0.17890825E-04
  144   -0.20607639E+03   -0.44337867E-11    0.16816694E-04
  145   -0.20607639E+03   -0.38085091E-11    0.15807257E-04
  146   -0.20607639E+03   -0.35527137E-11    0.14858605E-04
  147   -0.20607639E+03   -0.30127012E-11    0.13967066E-04
  148   -0.20607639E+03   -0.25579538E-11    0.13129189E-04
  149   -0.20607639E+03   -0.23590019E-11    0.12341735E-04
  150   -0.20607639E+03   -0.21316282E-11    0.11601659E-04
  151   -0.20607639E+03   -0.17621460E-11    0.10906102E-04
  152   -0.20607639E+03   -0.15916157E-11    0.10252376E-04
  153   -0.20607639E+03   -0.13926638E-11    0.96379574E-05
>> Charges saved for restart in charges.dat

Total Energy:                     -199.0079165915 H        -5415.2809 eV
Extrapolated to 0K:               -199.0079165915 H        -5415.2809 eV
Total Mermin free energy:         -199.0079165915 H        -5415.2809 eV
Force related energy:             -199.0079165915 H        -5415.2809 eV


--------------------------------------------------------------------------------
DFTB+ running times                          cpu [s]             wall clock [s]
--------------------------------------------------------------------------------
Global initialisation                  +       0.00 (  0.0%)       0.03 (  0.1%)
Pre-SCC initialisation                 +       0.04 (  0.0%)       0.01 (  0.0%)
SCC                                    +      92.44 (100.0%)      38.32 ( 99.8%)
Post-geometry optimisation             +       0.00 (  0.0%)       0.04 (  0.1%)
--------------------------------------------------------------------------------
Missing                                +       0.00 (  0.0%)       0.00 (  0.0%)
Total                                  =      92.48 (100.0%)      38.40 (100.0%)
--------------------------------------------------------------------------------
