  216
Geometry Step: 7
    C      0.14727516      1.74626754     -0.00000000      3.93986277
    C      0.33518997      0.33675145     -0.00000000      3.93984781
    C      1.64973295     -0.20531509      0.00000000      3.93983750
    C      2.77640417      0.66225344     -0.00000000      3.93987327
    C      2.58860634      2.07178923     -0.00000000      3.93987952
    C      1.27393650      2.61384282     -0.00000000      3.93986831
    C      1.08505234      4.02848251      0.00000000      4.06684603
    C      0.92193386      5.24588699     -0.00000000      3.99284448
    C      0.74114172      6.60500863     -0.00000000      4.00043958
    C      0.57941724      7.82763320      0.00000000      4.00045223
    C      0.39878329      9.18677254     -0.00000000      3.99282799
    C      0.23731279     10.40439835      0.00000000      4.06685353
    C      3.71966802      2.94220505      0.00000000      4.06685563
    C      4.69292285      3.69143382      0.00000000      3.99282930
    C      5.77941547      4.52764453      0.00000000      4.00045039
    C      6.75693241      5.27951439     -0.00000000      4.00044302
    C      7.84349331      6.11560514     -0.00000000      3.99284333
    C      8.81695771      6.86454307      0.00000000      4.06684709
    C      4.09566580      0.11773263     -0.00000000      4.06686486
    C      5.22907047     -0.35562267     -0.00000000      3.99284497
    C      6.49594059     -0.87989117     -0.00000000      4.00044687
    C      7.63602943     -1.35007548      0.00000000      4.00044707
    C      8.90392990     -1.87177031      0.00000000      3.99284466
    C     10.04093511     -2.33631996      0.00000000      4.06685299
    C     -1.45375726     13.77074477     -0.00000000      3.93986976
    C     -1.26571272     12.36119982      0.00000000      3.93985493
    C      0.04883554     11.81911745      0.00000000      3.93982899
    C      1.17539890     12.68681629      0.00000000      3.93987501
    C      0.98753207     14.09635485     -0.00000000      3.93988597
    C     -0.32714094     14.63840579      0.00000000      3.93986038
    C     -0.51602679     16.05305692      0.00000000      4.06684686
    C     -0.67914440     17.27046097     -0.00000000      3.99283761
    C     -0.85993640     18.62958079     -0.00000000      4.00044137
    C     -1.02166080     19.85220510      0.00000000      4.00044987
    C     -1.20229498     21.21134624     -0.00000000      3.99282886
    C     -1.36376493     22.42896781      0.00000000      4.06685081
    C      2.11858916     14.96677650     -0.00000000      4.06685521
    C      3.09184432     15.71600540      0.00000000      3.99283221
    C      4.17833771     16.55221587     -0.00000000      4.00044883
    C      5.15585495     17.30408592      0.00000000      4.00044491
    C      6.24241587     18.14017757     -0.00000000      3.99284213
    C      7.21587937     18.88911469      0.00000000      4.06684814
    C      2.49463955     12.14233388      0.00000000      4.06685707
    C      3.62801601     11.66894069      0.00000000      3.99285047
    C      4.89487055     11.14467527     -0.00000000      4.00044160
    C      6.03495993     10.67449404      0.00000000      4.00045180
    C      7.30287050     10.15279131     -0.00000000      3.99283887
    C      8.43987314      9.68819593      0.00000000      4.06686331
    C     -3.05483599     25.79531393      0.00000000      3.93987099
    C     -2.86679201     24.38577026      0.00000000      3.93985324
    C     -1.55224322     23.84368713      0.00000000      3.93983123
    C     -0.42567907     24.71138687     -0.00000000      3.93987328
    C     -0.61354468     26.12092545      0.00000000      3.93988743
    C     -1.92821880     26.66297697      0.00000000      3.93985978
    C     -2.11710316     28.07762056     -0.00000000      4.06685023
    C     -2.28021727     29.29500166     -0.00000000      3.99283159
    C     -2.46100682     30.65408271      0.00000000      4.00044665
    C     -2.62274744     31.87668319     -0.00000000      4.00044393
    C     -2.80333755     33.23578234      0.00000000      3.99283760
    C     -2.96465825     34.45340403     -0.00000000      4.06684420
    C      0.51753003     26.99136245     -0.00000000      4.06685821
    C      1.49079622     27.74059753      0.00000000      3.99283333
    C      2.57730645     28.57682588     -0.00000000      4.00044853
    C      3.55481730     29.32871845      0.00000000      4.00044664
    C      4.64140903     30.16477751      0.00000000      3.99283564
    C      5.61497602     30.91358043      0.00000000      4.06685232
    C      0.89356279     24.16690523     -0.00000000      4.06685790
    C      2.02693851     23.69351153      0.00000000      3.99284969
    C      3.29379177     23.16924653     -0.00000000      4.00044185
    C      4.43388109     22.69906651      0.00000000      4.00045140
    C      5.70179157     22.17736380     -0.00000000      3.99283930
    C      6.83879461     21.71276781      0.00000000      4.06686338
    C     11.36063916     -2.87960903     -0.00000000      3.93986543
    C     11.54855476     -4.28911912     -0.00000000      3.93984667
    C     12.86309743     -4.83114021     -0.00000000      3.93983308
    C     13.98973074     -3.96353541     -0.00000000      3.93987758
    C     13.80192499     -2.55400286      0.00000000      3.93987711
    C     12.48725307     -2.01197215      0.00000000      3.93986721
    C     12.29832717     -0.59732412     -0.00000000      4.06685005
    C     12.13522196      0.62008576      0.00000000      3.99284089
    C     11.95442672      1.97920937     -0.00000000      4.00044084
    C     11.79270073      3.20183136      0.00000000      4.00045005
    C     11.61207503      4.56096269      0.00000000      3.99282813
    C     11.45064622      5.77858435     -0.00000000      4.06685017
    C     14.93297167     -1.68358387     -0.00000000      4.06685533
    C     15.90621961     -0.93434817      0.00000000      3.99282883
    C     16.99270597     -0.09814050     -0.00000000      4.00044999
    C     17.97022145      0.65372673      0.00000000      4.00044219
    C     19.05677995      1.48981557     -0.00000000      3.99284365
    C     20.03024414      2.23875348      0.00000000      4.06684601
    C     15.30897644     -4.50805265     -0.00000000      4.06686308
    C     16.44236710     -4.98141710      0.00000000      3.99284728
    C     17.70922946     -5.50568357      0.00000000      4.00044557
    C     18.84931719     -5.97586618     -0.00000000      4.00044877
    C     20.11721749     -6.49756053      0.00000000      3.99284332
    C     21.25422102     -6.96210881      0.00000000      4.06685450
    C      9.75960671      9.14486842     -0.00000000      3.93987226
    C      9.94765220      7.73532912      0.00000000      3.93985430
    C     11.26220127      7.19329308      0.00000000      3.93982477
    C     12.38872658      8.06102887     -0.00000000      3.93987905
    C     12.20085144      9.47056287      0.00000000      3.93988335
    C     10.88617580     10.01259086      0.00000000      3.93985949
    C     10.69724746     11.42724900     -0.00000000      4.06685041
    C     10.53414383     12.64465860      0.00000000      3.99283425
    C     10.35334878     14.00378121     -0.00000000      4.00044278
    C     10.19162272     15.22640354      0.00000000      4.00044759
    C     10.01099675     16.58553654      0.00000000      3.99282898
    C      9.84956884     17.80315424     -0.00000000      4.06684749
    C     13.33189109     10.34098776     -0.00000000      4.06685439
    C     14.30514029     11.09022293     -0.00000000      3.99283235
    C     15.39162864     11.92643200     -0.00000000      4.00044853
    C     16.36914304     12.67829934      0.00000000      4.00044351
    C     17.45570166     13.51438751     -0.00000000      3.99284272
    C     18.42916618     14.26332585      0.00000000      4.06684711
    C     13.70794978      7.51654823      0.00000000      4.06685511
    C     14.84131211      7.04314639     -0.00000000      3.99285298
    C     16.10816027      6.51888244      0.00000000      4.00044048
    C     17.24824834      6.04870303      0.00000000      4.00045332
    C     18.51615827      5.52700095     -0.00000000      3.99283746
    C     19.65315835      5.06240640      0.00000000      4.06686503
    C      8.15852808     21.16943729     -0.00000000      3.93987390
    C      8.34657261     19.75989896     -0.00000000      3.93985263
    C      9.66112301     19.21786290      0.00000000      3.93982701
    C     10.78764774     20.08559937     -0.00000000      3.93987689
    C     10.59977401     21.49513383      0.00000000      3.93988521
    C      9.28509743     22.03716350      0.00000000      3.93985852
    C      9.09617034     23.45181247     -0.00000000      4.06685352
    C      8.93307062     24.66920108      0.00000000      3.99282849
    C      8.75227892     26.02828358      0.00000000      4.00044770
    C      8.59053633     27.25088141     -0.00000000      4.00044145
    C      8.40995400     28.60997219      0.00000000      3.99283832
    C      8.24867443     29.82759181      0.00000000      4.06684043
    C     11.73083409     22.36557497      0.00000000      4.06685829
    C     12.70409237     23.11481541     -0.00000000      3.99283239
    C     13.79059616     23.95104060     -0.00000000      4.00044839
    C     14.76810607     24.70293117      0.00000000      4.00044600
    C     15.85469550     25.53898857      0.00000000      3.99283561
    C     16.82826099     26.28779138     -0.00000000      4.06685149
    C     12.10687328     19.54111963      0.00000000      4.06685637
    C     13.24023556     19.06771764     -0.00000000      3.99285211
    C     14.50708193     18.54345416      0.00000000      4.00044057
    C     15.64716969     18.07327589     -0.00000000      4.00045299
    C     16.91507966     17.55157342      0.00000000      3.99283784
    C     18.05207994     17.08697785     -0.00000000      4.06686508
    C     22.57392566     -7.50539972      0.00000000      3.93986504
    C     22.76183925     -8.91490983     -0.00000000      3.93984678
    C     24.07638286     -9.45693054     -0.00000000      3.93983341
    C     25.20302608     -8.58932923     -0.00000000      3.93987904
    C     25.01521219     -7.17979212     -0.00000000      3.93987597
    C     23.70053917     -6.63776192      0.00000000      3.93986784
    C     23.51161316     -5.22311374     -0.00000000      4.06685011
    C     23.34850638     -4.00570452      0.00000000      3.99284065
    C     23.16771265     -2.64657986     -0.00000000      4.00044065
    C     23.00598682     -1.42395954      0.00000000      4.00044945
    C     22.82535972     -0.06482866     -0.00000000      3.99282805
    C     22.66393209      1.15279403      0.00000000      4.06685052
    C     26.14625325     -6.30937661     -0.00000000      4.06685619
    C     27.11951014     -5.56013537      0.00000000      3.99283031
    C     28.20599370     -4.72392703     -0.00000000      4.00044997
    C     29.18349540     -3.97205294      0.00000000      4.00043853
    C     30.27007117     -3.13598754     -0.00000000      3.99285310
    C     31.24360939     -2.38712975     -0.00000000      4.06683530
    C     26.52228749     -9.13385476     -0.00000000      4.06686520
    C     27.65569407     -9.60722486      0.00000000      3.99284826
    C     28.92257907    -10.13149929     -0.00000000      4.00044549
    C     30.06267606    -10.60167925      0.00000000      4.00044816
    C     31.33058730    -11.12339244      0.00000000      3.99284289
    C     32.46758181    -11.58798740     -0.00000000      4.06685286
    C     20.97289243      4.51907709     -0.00000000      3.93987147
    C     21.16093574      3.10953859      0.00000000      3.93985456
    C     22.47548692      2.56750265     -0.00000000      3.93982509
    C     23.60202187      3.43523422      0.00000000      3.93988052
    C     23.41413868      4.84477362     -0.00000000      3.93988271
    C     22.09946054      5.38680054      0.00000000      3.93985998
    C     21.91053285      6.80145914     -0.00000000      4.06685083
    C     21.74742799      8.01886937      0.00000000      3.99283408
    C     21.56663465      9.37799207      0.00000000      4.00044226
    C     21.40490891     10.60061192     -0.00000000      4.00044697
    C     21.22428146     11.95974511      0.00000000      3.99282920
    C     21.06285355     13.17736451     -0.00000000      4.06684803
    C     24.54517484      5.71519531     -0.00000000      4.06685565
    C     25.51843089      6.46443575      0.00000000      3.99283303
    C     26.60491552      7.30064430     -0.00000000      4.00044869
    C     27.58241737      8.05251875      0.00000000      4.00044038
    C     28.66899345      8.88858465      0.00000000      3.99285158
    C     29.64252950      9.63744176     -0.00000000      4.06683688
    C     24.92126181      2.89074599     -0.00000000      4.06685740
    C     26.05463955      2.41733915      0.00000000      3.99285352
    C     27.32150861      1.89306723     -0.00000000      4.00044051
    C     28.46160744      1.42289029      0.00000000      4.00045282
    C     29.72952772      0.90116920     -0.00000000      3.99283712
    C     30.86652042      0.43652762      0.00000000      4.06686313
    C     19.37181460     16.54364705      0.00000000      3.93987327
    C     19.55985656     15.13410797     -0.00000000      3.93985256
    C     20.87440743     14.59207308      0.00000000      3.93982711
    C     22.00094386     15.45980449     -0.00000000      3.93987866
    C     21.81306109     16.86934425      0.00000000      3.93988449
    C     20.49838323     17.41137243     -0.00000000      3.93985886
    C     20.30945647     18.82602551      0.00000000      4.06685480
    C     20.14635508     20.04341058     -0.00000000      3.99282711
    C     19.96556415     21.40249314      0.00000000      4.00044782
    C     19.80382232     22.62509105     -0.00000000      4.00044153
    C     19.62323902     23.98418165      0.00000000      3.99283725
    C     19.46196040     25.20179880      0.00000000      4.06684136
    C     22.94411771     17.73978306      0.00000000      4.06685935
    C     23.91738206     18.48902716     -0.00000000      3.99283327
    C     25.00388447     19.32525423      0.00000000      4.00044880
    C     25.98138062     20.07715194     -0.00000000      4.00044282
    C     27.06798808     20.91318645     -0.00000000      3.99284407
    C     28.04162564     21.66190304      0.00000000      4.06684106
    C     23.32018401     14.91531736      0.00000000      4.06685796
    C     24.45356241     14.44190975     -0.00000000      3.99285291
    C     25.72042996     13.91763796     -0.00000000      4.00044071
    C     26.86052906     13.44746190      0.00000000      4.00045231
    C     28.12844878     12.92574101     -0.00000000      3.99283756
    C     29.26544242     12.46109914     -0.00000000      4.06686299
