   72
Geometry Step: 5
    C      2.27825681      6.49127343      0.00000000      3.99205761
    C      2.27779274      7.71815280     -0.00000000      4.06812976
    C      1.04037076      1.75481653     -0.00000000      3.93982006
    C      1.03854673      0.33225323     -0.00000000      3.93981814
    C      2.26972053     -0.38035545      0.00000000      3.93982956
    C      3.50246158      0.32947484     -0.00000000      3.93982094
    C      3.50431650      1.75194284     -0.00000000      3.93979092
    C      2.27320323      2.46444676     -0.00000000      3.93980584
    C      2.27500511      3.89038954      0.00000000      4.06814157
    C      2.27707948      5.11728370     -0.00000000      3.99204164
    C      4.73682482     -0.38453475     -0.00000000      4.06813541
    C      5.80087748     -0.99545368      0.00000000      3.99205564
    C      6.99045528     -1.68331343     -0.00000000      3.99203174
    C      8.05147594     -2.29949598      0.00000000      4.06815328
    C      4.73998655      2.46399686      0.00000000      4.06814634
    C      5.80206722      3.07845510     -0.00000000      3.99203842
    C      6.99280920      3.76452181      0.00000000      3.99202660
    C      8.05684351      4.37558116     -0.00000000      4.06814775
    C      2.28790183     16.01551168      0.00000000      3.99203919
    C      2.28736639     17.24250078     -0.00000000      4.06815316
    C      1.05003628     11.27895330      0.00000000      3.93980910
    C      1.04808084      9.85650914      0.00000000      3.93980445
    C      2.27926449      9.14402000     -0.00000000      3.93984819
    C      3.51213883      9.85357362     -0.00000000      3.93980730
    C      3.51398700     11.27599205     -0.00000000      3.93977834
    C      2.28287683     11.98848318      0.00000000      3.93982333
    C      2.28466316     13.41447962      0.00000000      4.06814338
    C      2.28674344     14.64140647     -0.00000000      3.99205327
    C      4.74646334      9.13947105      0.00000000      4.06814428
    C      5.81052574      8.52856298     -0.00000000      3.99204065
    C      7.00010736      7.84070547      0.00000000      3.99204311
    C      8.06112651      7.22454683     -0.00000000      4.06813906
    C      4.74964916     11.98802455     -0.00000000      4.06815562
    C      5.81173071     12.60245028      0.00000000      3.99202906
    C      7.00244905     13.28854950      0.00000000      3.99203634
    C      8.06641091     13.89976927     -0.00000000      4.06814549
    C     10.52322414      1.72172489     -0.00000000      3.99206049
    C     10.52275753      2.94860714     -0.00000000      4.06813174
    C      9.28519527     -3.01477047     -0.00000000      3.93982128
    C      9.28336709     -4.43734780      0.00000000      3.93981135
    C     10.51459917     -5.14989751      0.00000000      3.93983737
    C     11.74737376     -4.44007343      0.00000000      3.93982247
    C     11.74923067     -3.01760485     -0.00000000      3.93978760
    C     10.51807261     -2.30513071      0.00000000      3.93981662
    C     10.51995883     -0.87916931     -0.00000000      4.06814579
    C     10.52204577      0.34773246      0.00000000      3.99204195
    C     12.98174565     -5.15406577     -0.00000000      4.06813129
    C     14.04580471     -5.76496674      0.00000000      3.99205685
    C     15.23535630     -6.45283183     -0.00000000      3.99202618
    C     16.29631753     -7.06907044      0.00000000      4.06815932
    C     12.98489020     -2.30557930     -0.00000000      4.06813755
    C     14.04696205     -1.69113752      0.00000000      3.99203840
    C     15.23767204     -1.00508577      0.00000000      3.99202031
    C     16.30167802     -0.39401528     -0.00000000      4.06815999
    C     10.53286912     11.24596349      0.00000000      3.99204206
    C     10.53233135     12.47295532     -0.00000000      4.06815527
    C      9.29486029      6.50936537      0.00000000      3.93981011
    C      9.29290088      5.08690779      0.00000000      3.93979783
    C     10.52414282      4.37447699     -0.00000000      3.93985583
    C     11.75704972      5.08402484      0.00000000      3.93980877
    C     11.75890012      6.50644410      0.00000000      3.93977491
    C     10.52774512      7.21890499     -0.00000000      3.93983410
    C     10.52961676      8.64492064     -0.00000000      4.06814779
    C     10.53170963      9.87185507      0.00000000      3.99205353
    C     12.99138323      4.36994036      0.00000000      4.06814025
    C     14.05545287      3.75904958      0.00000000      3.99204197
    C     15.24500825      3.07118726      0.00000000      3.99203748
    C     16.30596825      2.45497223     -0.00000000      4.06814509
    C     12.99455232      7.21844779     -0.00000000      4.06814724
    C     14.05662701      7.83285736      0.00000000      3.99202895
    C     15.24731111      8.51894035     -0.00000000      3.99202937
    C     16.31124280      9.13017311      0.00000000      4.06815833
