  192
Geometry Step: 0
    C     18.24622900     -8.87481000      0.03565000      3.93574650
    C      7.43420000     14.07260000      0.02318000      4.06608691
    C      7.43374000     15.40232000      0.02415000      4.06588060
    C      9.86795000     12.66766000      0.01765000      4.06590224
    C     11.01962000     13.33221000      0.01622000      4.06607271
    C      9.86864000      9.85817000      0.01612000      4.06604359
    C     11.02041000      9.19363000      0.01392000      4.06592765
    C     12.22807000      8.49655000      0.01254000      3.93404759
    C     12.22836000      7.08108000      0.01213000      3.93397896
    C     13.45451000      6.37389000      0.01067000      3.93408377
    C     14.68040000      7.08155000      0.01044000      3.93392868
    C     14.68011000      8.49701000      0.01112000      3.93395967
    C     13.45396000      9.20420000      0.01181000      3.93399126
    C     13.45369000     10.59851000      0.01203000      4.06605521
    C      6.21019000      5.02065000      0.01865000      3.93405829
    C     13.45348000     11.92813000      0.01273000      4.06599004
    C      6.21042000      3.60518000      0.01669000      3.93395586
    C      7.43641000      2.89770000      0.01411000      3.93413918
    C      8.66202000      3.60586000      0.01338000      3.93396867
    C      8.66185000      5.02135000      0.01530000      3.93399567
    C      7.43583000      5.72874000      0.01802000      3.93392117
    C      7.43537000      7.12311000      0.01952000      4.06608220
    C      7.43511000      8.45279000      0.02053000      4.06589874
    C      9.86935000      5.71873000      0.01414000      4.06601195
    C     11.02092000      6.38361000      0.01313000      4.06595712
    C      9.86983000      2.90917000      0.01032000      4.06599985
    C     11.02171000      2.24498000      0.00756000      4.06595172
    C      0.19146000      8.49433000      0.01182000      3.93408056
    C      0.19170000      7.07882000      0.01041000      3.93414861
    C      1.41757000      6.37109000      0.01436000      3.93415290
    C      2.64318000      7.07928000      0.01888000      3.93392276
    C      2.64291000      8.49480000      0.02035000      3.93402101
    C      1.41705000      9.20254000      0.01729000      3.93400887
    C      1.41668000     10.59699000      0.01847000      4.06595568
    C      1.41623000     11.92676000      0.01909000      4.06600606
    C      3.85033000      9.19225000      0.02339000      4.06601967
    C     18.24930000    -10.29190000      0.05052000      3.92982214
    C      5.00168000      9.85742000      0.02417000      4.06593399
    C      3.85090000      6.38234000      0.02055000      4.06605458
    C      5.00251000      5.71762000      0.02037000      4.06593103
    C     19.47559900     -6.77493000      0.01658000      4.06573017
    C     19.47571000     -8.16993000      0.02891000      3.93469879
    C      6.20883000     11.97026000      0.02380000      3.93400982
    C      6.20914000     10.55479000      0.02332000      3.93401236
    C      7.43505000      9.84716000      0.02113000      3.93411297
    C      8.66084000     10.55501000      0.01900000      3.93394326
    C      0.18815000     22.39393000      0.00768000      3.93404030
    C      0.18877000     20.97863000      0.01107000      3.93394019
    C      1.41397000     20.27014000      0.01771000      3.93408417
    C      2.63983000     20.97744900      0.02074000      3.93387732
    C      2.63895000     22.39270000      0.01776000      3.93435741
    C      1.41391000     23.10132000      0.01137000      3.93405299
    C      1.41438000     24.49559000      0.00715000      4.06484827
    C      1.41430000     25.82525100      0.00136000      4.06762801
    C      3.84623000     23.08959000      0.01947000      4.06417345
    C      4.99706000     23.75491000      0.01905000      4.06865135
    C      3.84764000     20.28082100      0.02507000      4.06592424
    C      4.99967000     19.61681900      0.02684000      4.06591280
    C      6.20760000     18.92024000      0.02663000      3.93402008
    C      6.20785000     17.50466900      0.02676000      3.93397303
    C      7.43363000     16.79673000      0.02490000      3.93411390
    C      8.65947000     17.50452000      0.02305000      3.93392872
    C      8.65873000     18.92008000      0.02336000      3.93425337
    C      7.43321000     19.62854000      0.02504000      3.93395661
    C      7.43319000     21.02314000      0.02418000      4.06528065
    C      7.43290000     22.35306000      0.02220000      4.06685277
    C      9.86648000     19.61673900      0.02140000      4.06418962
    C     11.01853000     20.28046000      0.01956000      4.06869322
    C      9.86732000     16.80752000      0.02041000      4.06588804
    C     11.01890000     16.14242900      0.01812000      4.06592526
    C     12.22648000     15.44499000      0.01644000      3.93400702
    C     12.22702000     14.02957000      0.01542000      3.93382294
    C     13.45321000     13.32245000      0.01380000      3.93417836
    C     14.67911000     14.03008000      0.01349000      3.93351769
    C     14.67910000     15.44551000      0.01466000      3.93463407
    C     13.45265000     16.15208100      0.01593000      3.93414799
    C     13.45237000     17.54620900      0.01666000      4.06410873
    C     13.45216000     18.87565000      0.01718000      4.06886561
    C      0.18943000     15.44461000      0.01541000      3.93398942
    C      0.19029000     14.02912000      0.01507000      3.93399216
    C      1.41607000     13.32123000      0.01947000      3.93411707
    C      2.64188000     14.02910000      0.02323000      3.93399052
    C      2.64148000     15.44460000      0.02397000      3.93408906
    C      1.41545000     16.15203100      0.02051000      3.93405243
    C      1.41499000     17.54632000      0.02075000      4.06596094
    C      1.41392000     18.87591000      0.01987000      4.06606306
    C      3.84886000     16.14220000      0.02673000      4.06596179
    C      5.00026000     16.80739000      0.02756000      4.06604357
    C      3.84956000     13.33208000      0.02499000      4.06594773
    C      5.00116000     12.66729000      0.02502000      4.06599871
    C     15.88640000     16.14341900      0.01477000      4.06319298
    C     17.03782100     16.80880900      0.01539000      4.06786836
    C     15.88677000     13.33318000      0.01241000      4.06649308
    C     17.03863900     12.66897000      0.01229000      4.06509038
    C     21.90809100    -10.98977000      0.06014000      4.06537478
    C     12.23111000     -5.39944000      0.01124000      3.93347998
    C     23.06225000     -7.51144000      0.02461000      4.06420017
    C     12.23173000     -6.81460000      0.02009000      3.93373037
    C     15.88750000      9.19456000      0.01120000      4.06602401
    C     17.03906100      9.85946000      0.01166000      4.06590015
    C     15.88811000      6.38453000      0.00953000      4.06602763
    C     17.03988100      5.71999000      0.00895000      4.06591125
    C     18.24764100      5.02307000      0.00860000      3.93402413
    C     18.24805100      3.60758000      0.00668000      3.93404560
    C     19.47392100      2.89990000      0.00583000      3.93409463
    C     20.69963100      3.60788000      0.00723000      3.93402911
    C     20.69928900      5.02335000      0.00945000      3.93394726
    C     19.47337900      5.73095000      0.01000000      3.93378007
    C     19.47328900      7.12532000      0.01151000      4.06642867
    C     19.47311000      8.45501000      0.01236000      4.06579755
    C     21.90671000      5.72078000      0.01071000      4.06657293
    C     23.05810900      6.38586000      0.01162000      4.06526836
    C     21.90733900      2.91091000      0.00611000      4.06596130
    C     23.05891000      2.24607000      0.00505000      4.06590688
    C     20.70520000     -8.87479000      0.03615000      3.93591341
    C     20.70225900    -10.29189000      0.05095000      3.92972246
    C     13.45706000     -7.52252000      0.02494000      3.93378427
    C     14.68214000     -6.81415000      0.01877000      3.93387817
    C     14.68229000     -5.39899000      0.00977000      3.93371946
    C     13.45657000     -4.69161000      0.00694000      3.93385331
    C     13.45631000     -3.29757000      0.00171000      4.06625119
    C     13.45607000     -1.96813000      0.00036000      4.06583369
    C     15.88996000     -4.70236000      0.00519000      4.06630365
    C     17.04200000     -4.03864000      0.00271000      4.06568581
    C     15.88941000     -7.51100000      0.02300000      4.06541556
    C     17.04003900     -8.17667000      0.02852000      4.06604120
    C      6.21151000     -1.92922000      0.01006000      3.93370067
    C      6.21180000     -3.34477000      0.01122000      3.93398414
    C      7.43765000     -4.05263000      0.01135000      3.93377531
    C      8.66290000     -3.34373000      0.00835000      3.93392002
    C     12.22934000      1.54802000      0.00536000      3.93404040
    C     12.22936000      0.13259000      0.00334000      3.93397275
    C     13.45581000     -0.57400000      0.00153000      3.93415026
    C     14.68200000      0.13307000      0.00167000      3.93394694
    C     14.68143000      1.54850000      0.00382000      3.93390464
    C     13.45525000      2.25563000      0.00557000      3.93398107
    C     13.45497000      3.64995000      0.00756000      4.06609312
    C     13.45476000      4.97957000      0.00929000      4.06595719
    C     15.88878000      2.24595000      0.00440000      4.06608316
    C     17.04047000      2.91047000      0.00541000      4.06588430
    C     15.88960000     -0.56432000      0.00015000      4.06598115
    C     17.04117000     -1.22943000     -0.00020000      4.06593693
    C     18.24902000     -1.92644000      0.00058000      3.93395648
    C     18.24976000     -3.34199000      0.00193000      3.93421235
    C     19.47529000     -4.05043000      0.00367000      3.93367716
    C     20.70089000     -3.34212000      0.00229000      3.93415326
    C     20.70060900     -1.92656000      0.00094000      3.93391187
    C     19.47485000     -1.21862000      0.00080000      3.93398774
    C     19.47473900      0.17578000      0.00148000      4.06608307
    C     19.47431000      1.50550000      0.00335000      4.06594176
    C     21.90817100     -1.22923000      0.00042000      4.06650819
    C     23.05958000     -0.56407000      0.00073000      4.06529041
    C     21.90880000     -4.03872000      0.00338000      4.06578255
    C     23.06081000     -4.70276000      0.00621000      4.06624688
    C     19.47578000    -10.95909000      0.05685000      3.93094430
    C      8.66309000     -1.92818000      0.00720000      3.93390576
    C      7.43701000     -1.22082000      0.00887000      3.93387552
    C      7.43658000      0.17358000      0.00973000      4.06614901
    C      7.43655000      1.50330000      0.01171000      4.06582822
    C      9.87065000     -1.23069000      0.00500000      4.06603395
    C     11.02201000     -0.56523000      0.00370000      4.06591541
    C      9.87090000     -4.03997000      0.00748000      4.06591347
    C     11.02318000     -4.70328000      0.00833000      4.06604130
    C      0.19269000      1.54409000      0.00195000      3.93467313
    C      0.19230000      0.12861000     -0.00007000      3.93318462
    C      1.41859000     -0.57835000      0.00380000      3.93418265
    C      2.64437000      0.12950000      0.00829000      3.93349137
    C      2.64426000      1.54499000      0.01061000      3.93407843
    C      1.41820000      2.25241000      0.00809000      3.93365392
    C      1.41783000      3.64687000      0.01069000      4.06610426
    C      1.41774000      4.97664000      0.01268000      4.06606274
    C      3.85163000      2.24252000      0.01441000      4.06604439
    C      5.00298000      2.90775000      0.01638000      4.06598909
    C      3.85202000     -0.56764000      0.00985000      4.06609097
    C      5.00367000     -1.23239000      0.01028000      4.06578297
    C     18.24644100     11.97225000      0.01278000      3.93442551
    C     18.24659900     10.55676000      0.01244000      3.93387118
    C     19.47263900      9.84938000      0.01283000      3.93429948
    C     20.69829000     10.55748000      0.01345000      3.93387401
    C     20.69803000     11.97295000      0.01394000      3.93447186
    C     19.47203100     12.68042000      0.01367000      3.93332841
    C     19.47188900     14.07482000      0.01424000      4.06189338
    C     19.47197000     15.40454000      0.01495000      4.08039832
    C     21.90543900     12.67045000      0.01450000      4.06455252
    C     23.05682900     13.33562000      0.01484000      4.06716526
    C     21.90601000      9.86057000      0.01343000      4.06592227
    C     23.05759000      9.19577000      0.01343000      4.06591130
    C     21.91142100     -8.17675000      0.02956000      4.06691603
    C      7.43456000     12.67820000      0.02233000      3.93390308
    C     23.05871000    -11.65632000      0.06966000      4.06557803
    C     19.47533000     -5.44503000      0.00833000      4.06662365
    C      8.66041000     11.97049000      0.01968000      3.93404893
  192
Geometry Step: 1
    C     18.24839530     -8.87582142      0.03586509      3.93618058
    C      7.43419359     14.11340187      0.02320792      4.06455174
    C      7.43374646     15.36151959      0.02412401      4.06443377
    C      9.90333661     12.68808775      0.01760732      4.06472385
    C     10.98422699     13.31177034      0.01626116      4.06417838
    C      9.90398840      9.83777287      0.01605512      4.06487872
    C     10.98506037      9.21403016      0.01398563      4.06403972
    C     12.23015027      8.49533470      0.01253700      3.93568344
    C     12.23044218      7.08229982      0.01212687      3.93563394
    C     13.45451827      6.37628748      0.01067096      3.93553091
    C     14.67830421      7.08275543      0.01044004      3.93524539
    C     14.67801402      8.49580491      0.01111910      3.93527966
    C     13.45396984      9.20180154      0.01180857      3.93545831
    C     13.45368331     10.63934738      0.01205224      4.06455905
    C      6.21227175      5.01946336      0.01865109      3.93574460
    C     13.45348933     11.88728877      0.01270847      4.06450041
    C      6.21252192      3.60636824      0.01669174      3.93558935
    C      7.43637098      2.90009449      0.01411247      3.93553729
    C      8.65997424      3.60707778      0.01338253      3.93523496
    C      8.65977050      5.02012778      0.01530293      3.93527528
    C      7.43581832      5.72634388      0.01801969      3.93537762
    C      7.43536491      7.16391657      0.01955185      4.06452465
    C      7.43511840      8.41198472      0.02049972      4.06442967
    C      9.90470277      5.73914562      0.01411057      4.06486363
    C     10.98556907      6.36319096      0.01315903      4.06408570
    C      9.90516624      2.88878515      0.01023735      4.06484570
    C     10.98637298      2.26537008      0.00764210      4.06407834
    C      0.19369877      8.49338713      0.01176936      3.93417377
    C      0.19458028      7.08060533      0.01059710      3.93348136
    C      1.41766323      6.37347863      0.01432194      3.93320540
    C      2.64108999      7.08046336      0.01883675      3.93492577
    C      2.64085578      8.49361084      0.02035546      3.93528284
    C      1.41705668      9.20007728      0.01724580      3.93322707
    C      1.41667285     10.63782133      0.01849199      4.06367841
    C      1.41623451     11.88594549      0.01906234      4.06442087
    C      3.88566480      9.21265461      0.02342903      4.06498091
    C     18.24839462    -10.28853961      0.05008986      3.93197535
    C      4.96634137      9.83700388      0.02414979      4.06389428
    C      3.88625041      6.36194061      0.02055543      4.06510875
    C      4.96715931      5.73802017      0.02038021      4.06372241
    C     19.47559130     -6.73395950      0.01629371      4.06428932
    C     19.47572808     -8.17248808      0.02898591      3.93610790
    C      6.21087631     11.96904486      0.02380073      3.93571063
    C      6.21121087     10.55600645      0.02332106      3.93564051
    C      7.43506261      9.84955276      0.02113183      3.93548908
    C      8.65875030     10.55620251      0.01900276      3.93519081
    C      0.19040370     22.39283453      0.00781173      3.93411047
    C      0.19127939     20.98012376      0.01109683      3.93337386
    C      1.41403957     20.27255805      0.01766867      3.93320776
    C      2.63771611     20.97866791      0.02073082      3.93492181
    C      2.63683285     22.39148308      0.01775263      3.93527286
    C      1.41393237     23.09881770      0.01131345      3.93323018
    C      1.41442014     24.53657315      0.00701561      4.06116921
    C      1.41440851     25.78582493      0.00154995      4.06914049
    C      3.88176486     23.11015122      0.01944840      4.06589525
    C      4.96352581     23.73562176      0.01903067      4.06203368
    C      3.88301777     20.26042397      0.02513940      4.06496478
    C      4.96430355     19.63721069      0.02679344      4.06370941
    C      6.20968829     18.91904749      0.02663334      3.93567493
    C      6.20993117     17.50585941      0.02676013      3.93563583
    C      7.43361788     16.79911992      0.02490139      3.93550496
    C      8.65737308     17.50576370      0.02305268      3.93525534
    C      8.65661438     18.91879895      0.02335479      3.93522354
    C      7.43319693     19.62608021      0.02506899      3.93541978
    C      7.43322100     21.06404947      0.02409988      4.06213875
    C      7.43303058     22.31317560      0.02221257      4.06878018
    C      9.90203467     19.63730753      0.02135318      4.06581792
    C     10.98497516     20.26133838      0.01963440      4.06228934
    C      9.90267802     16.78710776      0.02034347      4.06469910
    C     10.98354014     16.16284965      0.01818874      4.06402991
    C     12.22863087     15.44383056      0.01644284      3.93561855
    C     12.22917799     14.03073237      0.01541737      3.93547388
    C     13.45310613     13.32486353      0.01380653      3.93563661
    C     14.67711753     14.03133400      0.01349746      3.93505416
    C     14.67693060     15.44424498      0.01454715      3.93554427
    C     13.45259397     16.14959702      0.01589742      3.93544193
    C     13.45239943     17.58732923      0.01670749      4.06173175
    C     13.45228388     18.83730704      0.01726945      4.06994155
    C      0.19175664     15.44343696      0.01537186      3.93417166
    C      0.19275447     14.03061643      0.01498608      3.93337108
    C      1.41615311     13.32363915      0.01949545      3.93321369
    C      2.63978945     14.03025222      0.02325040      3.93492894
    C      2.63940666     15.44344346      0.02397904      3.93530160
    C      1.41549919     16.14960057      0.02053536      3.93326457
    C      1.41497631     17.58715426      0.02072045      4.06369020
    C      1.41392628     18.83507555      0.01990641      4.06447769
    C      3.88418863     16.16260625      0.02676033      4.06493752
    C      4.96492588     16.78698104      0.02753863      4.06393960
    C      3.88488710     13.31169098      0.02499911      4.06503092
    C      4.96583245     12.68768096      0.02502415      4.06375893
    C     15.92197227     16.16401083      0.01489873      4.06496165
    C     17.00372791     16.78874856      0.01556791      4.06154621
    C     15.92209626     13.31278835      0.01240016      4.06510742
    C     17.00328675     12.68936390      0.01229103      4.06355685
    C     21.94363837    -11.01076893      0.06014276      4.05417183
    C     12.23299307     -5.40090583      0.01129246      3.93553904
    C     23.02607041     -7.53242134      0.02466179      4.07521446
    C     12.23225817     -6.81477621      0.02006765      3.93431781
    C     15.92285587      9.21497790      0.01121141      4.06483891
    C     17.00371056      9.83904289      0.01164700      4.06411098
    C     15.92347499      6.36411967      0.00951173      4.06487775
    C     17.00450884      5.74040186      0.00896920      4.06413523
    C     18.24974334      5.02185317      0.00859913      3.93568456
    C     18.25011772      3.60879952      0.00668286      3.93562490
    C     19.47393338      2.90228057      0.00583043      3.93546132
    C     20.69755905      3.60909837      0.00719833      3.93594850
    C     20.69720704      5.02215651      0.00945396      3.93608632
    C     19.47337475      5.72853074      0.00999784      3.93531014
    C     19.47328077      7.16618922      0.01153968      4.06441395
    C     19.47311524      8.41410562      0.01233287      4.06403603
    C     21.94202810      5.74117136      0.01073223      4.05718369
    C     23.02214022      6.36505808      0.01157743      4.07578470
    C     21.94266831      2.89049036      0.00610829      4.05574471
    C     23.02340518      2.26647541      0.00509379      4.07916235
    C     20.70292309     -8.87560533      0.03631281      3.93697275
    C     20.70184333    -10.28780217      0.05134254      3.93324502
    C     13.45676437     -7.52222620      0.02473916      3.93650511
    C     14.67995587     -6.81327210      0.01881454      3.93518378
    C     14.68010897     -5.40015960      0.00980818      3.93545988
    C     13.45664463     -4.69407676      0.00695256      3.93483376
    C     13.45629625     -3.25668159      0.00164416      4.06474350
    C     13.45607845     -2.00900738      0.00039902      4.06417386
    C     15.92537981     -4.68194141      0.00510772      4.06492257
    C     17.00658844     -4.05906313      0.00278436      4.06413660
    C     15.92475132     -7.53142940      0.02314688      4.06355765
    C     17.00481595     -8.15622765      0.02831449      4.06510020
    C      6.21346888     -1.93065199      0.01003101      3.93575637
    C      6.21239240     -3.34456737      0.01128973      3.93433814
    C      7.43733595     -4.05102131      0.01142208      3.93653382
    C      8.66080589     -3.34266434      0.00832598      3.93507273
    C     12.23141017      1.54683329      0.00535605      3.93566590
    C     12.23146933      0.13378738      0.00333699      3.93555811
    C     13.45579611     -0.57160513      0.00152323      3.93565760
    C     14.67989594      0.13429654      0.00166853      3.93521673
    C     14.67935580      1.54728015      0.00381656      3.93529191
    C     13.45524215      2.25323077      0.00556578      3.93543612
    C     13.45496536      3.69077950      0.00761352      4.06457842
    C     13.45476716      4.93873932      0.00924155      4.06445581
    C     15.92413538      2.26636608      0.00442914      4.06486395
    C     17.00511784      2.89005848      0.00537870      4.06415760
    C     15.92495113     -0.58473737      0.00013780      4.06487158
    C     17.00581754     -1.20901997     -0.00018876      4.06411685
    C     18.25112897     -1.92764215      0.00057720      3.93566681
    C     18.25187591     -3.34079708      0.00192319      3.93569404
    C     19.47528760     -4.04792291      0.00365854      3.93527086
    C     20.69878391     -3.34089262      0.00227763      3.93598678
    C     20.69856061     -1.92775843      0.00089544      3.93609821
    C     19.47481719     -1.22099834      0.00079773      3.93537687
    C     19.47473298      0.21656481      0.00152663      4.06421471
    C     19.47431516      1.46471324      0.00329467      4.06407041
    C     21.94346010     -1.20885551      0.00046581      4.05717112
    C     23.02370355     -0.58482742      0.00075117      4.07581865
    C     21.94417188     -4.05915613      0.00346976      4.05567463
    C     23.02540358     -4.68247489      0.00614965      4.07937608
    C     19.47553096    -10.97001692      0.05619595      3.93488412
    C      8.66096397     -1.92939507      0.00718162      3.93555643
    C      7.43703757     -1.22323531      0.00885608      3.93491618
    C      7.43656820      0.21438718      0.00978384      4.06458796
    C      7.43656042      1.46249317      0.01165265      4.06423965
    C      9.90600116     -1.21026981      0.00496333      4.06476765
    C     10.98666925     -0.58565832      0.00373696      4.06419394
    C      9.90630043     -4.06036766      0.00751260      4.06393803
    C     10.98775560     -4.68286925      0.00829306      4.06492373
    C      0.19426051      1.54307417      0.00269913      3.93477122
    C      0.19385547      0.12953275      0.00004804      3.93170425
    C      1.41851249     -0.57722952      0.00357631      3.93451941
    C      2.64213472      0.13048269      0.00825667      3.93451680
    C      2.64210857      1.54383898      0.01044827      3.93557962
    C      1.41823583      2.24996216      0.00792522      3.93263264
    C      1.41781753      3.68771155      0.01081517      4.06378520
    C      1.41774563      4.93582839      0.01264027      4.06436378
    C      3.88699661      2.26294437      0.01448867      4.06492352
    C      4.96761693      2.88732215      0.01632653      4.06399963
    C      3.88744891     -0.58808856      0.00989364      4.06426693
    C      4.96823827     -1.21194168      0.01027503      4.06448339
    C     18.24862818     11.97117958      0.01277718      3.93585109
    C     18.24873321     10.55788220      0.01244898      3.93556260
    C     19.47262175      9.85186784      0.01282717      3.93562943
    C     20.69619658     10.55864078      0.01348092      3.93598735
    C     20.69582017     11.97185304      0.01398581      3.93620674
    C     19.47201556     12.67754279      0.01352629      3.93456627
    C     19.47190919     14.11684056      0.01440975      4.06111356
    C     19.47206731     15.37052859      0.01538655      4.07672343
    C     21.94084882     12.69090943      0.01446183      4.05779610
    C     23.02211634     13.31557659      0.01477466      4.07339613
    C     21.94133888      9.84014703      0.01341062      4.05567111
    C     23.02210772      9.21614843      0.01336130      4.07919639
    C     21.94653955     -8.15639837      0.02936108      4.05723787
    C      7.43459523     12.67580622      0.02232913      3.93539118
    C     23.02373995    -11.63606763      0.06901945      4.07976951
    C     19.47533263     -5.48599163      0.00856771      4.06437463
    C      8.65830364     11.96929740      0.01968231      3.93532918
  192
Geometry Step: 2
    C     18.24400473     -8.87277736      0.03617248      3.93590555
    C      7.43419663     14.13519177      0.02322199      4.06264693
    C      7.43373924     15.33972367      0.02411222      4.06282810
    C      9.92205167     12.69889856      0.01759204      4.06266993
    C     10.96552334     13.30095883      0.01628661      4.06300664
    C      9.92279913      9.82691127      0.01603004      4.06237862
    C     10.96624051      9.22489046      0.01402810      4.06325092
    C     12.22581528      8.49786393      0.01254032      3.93707981
    C     12.22610253      7.07977241      0.01212669      3.93723402
    C     13.45450225      6.37123544      0.01066487      3.93737298
    C     14.68265881      7.08026486      0.01043296      3.93750378
    C     14.68236057      8.49829930      0.01111697      3.93740317
    C     13.45395392      9.20685060      0.01180854      3.93743424
    C     13.45368028     10.66103602      0.01207182      4.06271268
    C      6.20795526      5.02193307      0.01866484      3.93685998
    C     13.45348729     11.86560017      0.01270100      4.06277602
    C      6.20817814      3.60389380      0.01669460      3.93752746
    C      7.43640369      2.89511357      0.01409650      3.93717401
    C      8.66431283      3.60452154      0.01336512      3.93778155
    C      8.66411527      5.02267609      0.01529930      3.93736060
    C      7.43582614      5.73134788      0.01802673      3.93757791
    C      7.43536221      7.18567197      0.01956660      4.06270840
    C      7.43512391      8.39022861      0.02047893      4.06287204
    C      9.92350210      5.75000265      0.01409914      4.06251919
    C     10.96676582      6.35232665      0.01317114      4.06303338
    C      9.92398198      2.87792256      0.01019773      4.06232617
    C     10.96755425      2.27623790      0.00769012      4.06332322
    C      0.17593412      8.50182359      0.01155250      3.93230672
    C      0.17713516      7.07621866      0.01112711      3.94691647
    C      1.41532999      6.36759215      0.01429049      3.94381252
    C      2.64534248      7.07853930      0.01876209      3.94067510
    C      2.64517890      8.49553018      0.02039054      3.93619210
    C      1.41461675      9.20582586      0.01715217      3.94892881
    C      1.41671987     10.65978795      0.01849415      4.06497575
    C      1.41622173     11.86402249      0.01902742      4.06100551
    C      3.90453885      9.22361018      0.02345005      4.06220873
    C     18.24644524    -10.28911620      0.04899546      3.94119428
    C      4.94744252      9.82608248      0.02412768      4.06297226
    C      3.90513213      6.35097277      0.02054767      4.06158927
    C      4.94824392      5.74893558      0.02037640      4.06436960
    C     19.47555694     -6.71250955      0.01613613      4.06415691
    C     19.47572327     -8.16730827      0.02907178      3.93999479
    C      6.20659406     11.97152627      0.02381018      3.93684234