nohup: ignoring input
|===============================================================================
|
|  DFTB+ release 22.2
|
|  Copyright (C) 2006 - 2022  DFTB+ developers group
|
|===============================================================================
|
|  When publishing results obtained with DFTB+, please cite the following
|  reference:
|
|  * DFTB+, a software package for efficient approximate density functional
|    theory based atomistic simulations, J. Chem. Phys. 152, 124101 (2020).
|    [doi: 10.1063/1.5143190]
|
|  You should also cite additional publications crediting the parametrization
|  data you use. Please consult the documentation of the SK-files for the
|  references.
|
|===============================================================================

Reading input file 'dftb_in.hsd'
Parser version: 12

--------------------------------------------------------------------------------
Reading SK-files:
/home/common/3ob-3-1_H_mod/C-C.skf
Done.


Processed input in HSD format written to 'dftb_pin.hsd'

Starting initialization...
--------------------------------------------------------------------------------
WARNING!
-> Dipole printed for extended system : value printed is not well defined
Chosen random seed:          759778289
Mode:                        Static calculation
Self consistent charges:     Yes
SCC-tolerance:                 0.100000E-04
Max. scc iterations:                  10000
Shell resolved Hubbard:      No
Spin polarisation:           No
Nr. of up electrons:           384.000000
Nr. of down electrons:         384.000000
Periodic boundaries:         Yes
Electronic solver:           Relatively robust
Mixer:                       Anderson mixer
Mixing parameter:                  0.050000
Maximal SCC-cycles:                   10000
Nr. of chrg. vectors to mix:              4
Electronic temperature:              0.100000E-07 H      0.272114E-06 eV
Initial charges:             Set automatically (system chrg:   0.000E+00)
Included shells:             C:  s, p
K-points and weights:           1:  0.000000  0.000000  0.000000     1.000000

K-points in absolute space:     1:  0.000000  0.000000  0.000000

s-dftd3 library version:     0.7.0
-> damping function:         rational damping
Full 3rd order correction    Yes
Extra options:
                             Mulliken analysis
                             Force calculation
Force type                   original

--------------------------------------------------------------------------------

***  Geometry step: 0

 iSCC Total electronic   Diff electronic      SCC error    
    1    0.00000000E+00    0.00000000E+00    0.16994830E+00
    2   -0.33208743E+03   -0.33208743E+03    0.16632850E+00
    3   -0.33209474E+03   -0.73134934E-02    0.58884113E-02
    4   -0.33226590E+03   -0.17115423E+00    0.63184398E-02
    5   -0.33226591E+03   -0.11661189E-04    0.23222390E-02
    6   -0.33226595E+03   -0.41587014E-04    0.21451370E-02
    7   -0.33226595E+03   -0.71763935E-06    0.83818501E-03
    8   -0.33226595E+03   -0.44929942E-06    0.72871607E-03
    9   -0.33226595E+03   -0.14716551E-06    0.30307933E-03
   10   -0.33226595E+03   -0.52574603E-06    0.25204359E-03
   11   -0.33226595E+03   -0.20740572E-07    0.17537018E-03
   12   -0.33226595E+03   -0.16617548E-07    0.12645630E-03
   13   -0.33226595E+03   -0.31108698E-08    0.13057374E-03
   14   -0.33226595E+03   -0.65203380E-08    0.10825090E-03
   15   -0.33226595E+03   -0.11215207E-08    0.36279962E-04
   16   -0.33226595E+03   -0.21544793E-08    0.31740767E-04
   17   -0.33226595E+03   -0.28546765E-09    0.21218554E-04
   18   -0.33226595E+03   -0.57303851E-09    0.22200232E-04
   19   -0.33226595E+03   -0.14699708E-09    0.21374489E-04
   20   -0.33226595E+03   -0.17621460E-11    0.15734884E-04
   21   -0.33226595E+03   -0.39790393E-12    0.11673515E-04
   22   -0.33226595E+03   -0.15461410E-10    0.84636796E-05

Total Energy:                     -325.1004962124 H        -8846.4346 eV
Extrapolated to 0K:               -325.1004962124 H        -8846.4346 eV
Total Mermin free energy:         -325.1004962124 H        -8846.4346 eV
Force related energy:             -325.1004962124 H        -8846.4346 eV

Volume:                              0.225865E+06 au^3   0.334697E+05 A^3
Pressure:                           -0.126999E-04 au    -0.373644E+09 Pa
>> Charges saved for restart in charges.bin

total energy  -3.2510050E+02 H       energy change -3.2510050E+02 H
gradient norm  1.8158399E+00 H/a0    max. gradient  1.8926113E-01 H/a0
step length    0.0000000E+00 a0      max. step      0.0000000E+00 a0

--------------------------------------------------------------------------------

***  Geometry step: 1

 iSCC Total electronic   Diff electronic      SCC error    
    1   -0.33226595E+03    0.00000000E+00    0.26296777E-01
    2   -0.33449660E+03   -0.22306490E+01    0.25717292E-01
    3   -0.33449662E+03   -0.20928137E-04    0.51794480E-02
    4   -0.33449690E+03   -0.27783599E-03    0.51157211E-02
    5   -0.33449690E+03   -0.21492452E-05    0.18237379E-02
    6   -0.33449695E+03   -0.47637887E-04    0.16093701E-02
    7   -0.33449695E+03   -0.93068979E-06    0.38294751E-03
    8   -0.33449695E+03   -0.22047742E-05    0.31077826E-03
    9   -0.33449695E+03   -0.58226192E-07    0.13376306E-03
   10   -0.33449695E+03   -0.99477859E-07    0.77424510E-04
   11   -0.33449695E+03   -0.25006671E-07    0.64329977E-04
   12   -0.33449695E+03    0.10783197E-08    0.21399859E-04
   13   -0.33449695E+03   -0.26353746E-08    0.19589378E-04
   14   -0.33449695E+03   -0.32599701E-09    0.19723377E-04
   15   -0.33449695E+03   -0.53910298E-09    0.13959280E-04
   16   -0.33449695E+03    0.81399776E-10    0.12895532E-04
   17   -0.33449695E+03    0.18076207E-10    0.40018238E-05

Total Energy:                     -325.9632656628 H        -8869.9118 eV
Extrapolated to 0K:               -325.9632656628 H        -8869.9118 eV
Total Mermin free energy:         -325.9632656628 H        -8869.9118 eV
Force related energy:             -325.9632656628 H        -8869.9118 eV

Volume:                              0.226527E+06 au^3   0.335679E+05 A^3
Pressure:                           -0.101942E-04 au    -0.299923E+09 Pa
>> Charges saved for restart in charges.bin

total energy  -3.2596327E+02 H       energy change -8.6276945E-01 H
gradient norm  6.7176583E-01 H/a0    max. gradient  3.0489315E-01 H/a0
step length    7.6186286E-01 a0      max. step      7.9407342E-02 a0

--------------------------------------------------------------------------------

***  Geometry step: 2

 iSCC Total electronic   Diff electronic      SCC error    
    1   -0.33449695E+03    0.00000000E+00    0.13891905E+00
    2   -0.33631407E+03   -0.18171211E+01    0.13613126E+00
    3   -0.33631450E+03   -0.42478883E-03    0.28551837E-01
    4   -0.33631974E+03   -0.52403066E-02    0.27887390E-01
    5   -0.33631982E+03   -0.86939790E-04    0.11064202E-01
    6   -0.33632093E+03   -0.11037583E-02    0.97225191E-02
    7   -0.33632097E+03   -0.44459144E-04    0.22733351E-02
    8   -0.33632107E+03   -0.99803395E-04    0.18699633E-02
    9   -0.33632107E+03   -0.21425093E-05    0.89899533E-03
   10   -0.33632108E+03   -0.43946324E-05    0.51749698E-03
   11   -0.33632108E+03   -0.64511187E-06    0.45385604E-03
   12   -0.33632108E+03    0.50657547E-07    0.22585208E-03
   13   -0.33632108E+03   -0.13658553E-06    0.17326694E-03
   14   -0.33632108E+03   -0.19000879E-07    0.12995994E-03
   15   -0.33632108E+03   -0.32525577E-07    0.82435162E-04
   16   -0.33632108E+03    0.63102448E-08    0.80463796E-04
   17   -0.33632108E+03    0.84952489E-09    0.36384567E-04
   18   -0.33632108E+03   -0.79249958E-08    0.31048990E-04
   19   -0.33632108E+03   -0.41097792E-09    0.20202464E-04
   20   -0.33632108E+03   -0.38676262E-09    0.13028762E-04
   21   -0.33632108E+03   -0.53262283E-10    0.10452993E-04
   22   -0.33632108E+03   -0.20349944E-10    0.61646340E-05

Total Energy:                     -325.6806794947 H        -8862.2222 eV
Extrapolated to 0K:               -325.6806794947 H        -8862.2222 eV
Total Mermin free energy:         -325.6806794947 H        -8862.2222 eV
Force related energy:             -325.6806794947 H        -8862.2222 eV

Volume:                              0.224046E+06 au^3   0.332002E+05 A^3
Pressure:                            0.471577E-05 au     0.138743E+09 Pa
>> Charges saved for restart in charges.bin

total energy  -3.2568068E+02 H       energy change  2.8258617E-01 H
gradient norm  2.8163522E+00 H/a0    max. gradient  1.8639940E+00 H/a0
step length    5.6995997E-01 a0      max. step      2.6155963E-01 a0

--------------------------------------------------------------------------------

***  Geometry step: 3

 iSCC Total electronic   Diff electronic      SCC error    
    1   -0.33632108E+03    0.00000000E+00    0.12114492E+00
    2   -0.33587376E+03    0.44731991E+00    0.11860040E+00
    3   -0.33587405E+03   -0.28849228E-03    0.22537018E-01
    4   -0.33587778E+03   -0.37352865E-02    0.22218812E-01
    5   -0.33587779E+03   -0.10959167E-04    0.58126951E-02
    6   -0.33587845E+03   -0.65346041E-03    0.51918392E-02
    7   -0.33587846E+03   -0.10516575E-04    0.14440792E-02
    8   -0.33587848E+03   -0.24060976E-04    0.13344640E-02
    9   -0.33587848E+03   -0.22754989E-07    0.93481415E-03
   10   -0.33587848E+03   -0.45092082E-06    0.32234818E-03
   11   -0.33587848E+03   -0.72281119E-06    0.24591398E-03
   12   -0.33587848E+03   -0.73217791E-07    0.12826459E-03
   13   -0.33587848E+03   -0.10957251E-06    0.10599152E-03
   14   -0.33587848E+03   -0.48795357E-07    0.93573194E-04
   15   -0.33587848E+03   -0.58573733E-08    0.48301321E-04
   16   -0.33587848E+03   -0.57355010E-08    0.54204876E-04
   17   -0.33587848E+03   -0.27779379E-09    0.55055567E-04
   18   -0.33587848E+03    0.11920065E-09    0.23923320E-04
   19   -0.33587848E+03   -0.88209617E-09    0.20499079E-04
   20   -0.33587848E+03   -0.47123194E-10    0.14626926E-04
   21   -0.33587848E+03   -0.24238034E-09    0.12452266E-04
   22   -0.33587848E+03   -0.12266810E-09    0.99934833E-05

Total Energy:                     -326.0444296686 H        -8872.1203 eV
Extrapolated to 0K:               -326.0444296686 H        -8872.1203 eV
Total Mermin free energy:         -326.0444296686 H        -8872.1203 eV
Force related energy:             -326.0444296686 H        -8872.1203 eV

Volume:                              0.225648E+06 au^3   0.334376E+05 A^3
Pressure:                           -0.360768E-05 au    -0.106141E+09 Pa
>> Charges saved for restart in charges.bin

total energy  -3.2604443E+02 H       energy change -3.6375017E-01 H
gradient norm  3.2358280E-01 H/a0    max. gradient  1.1692548E-01 H/a0
step length    3.2891184E-01 a0      max. step      2.1710237E-01 a0

--------------------------------------------------------------------------------

***  Geometry step: 4

 iSCC Total electronic   Diff electronic      SCC error    
    1   -0.33587848E+03    0.00000000E+00    0.35377288E-01
    2   -0.33522306E+03    0.65542005E+00    0.34705047E-01
    3   -0.33522308E+03   -0.14224695E-04    0.57402864E-02
    4   -0.33522327E+03   -0.18749417E-03    0.56025056E-02
    5   -0.33522327E+03   -0.19820479E-05    0.15127167E-02
    6   -0.33522332E+03   -0.47999051E-04    0.13752863E-02
    7   -0.33522332E+03   -0.65388224E-06    0.43829256E-03
    8   -0.33522332E+03   -0.14121458E-05    0.34443946E-03
    9   -0.33522332E+03   -0.81497262E-07    0.69925291E-04
   10   -0.33522332E+03   -0.13860802E-06    0.52476321E-04
   11   -0.33522332E+03   -0.47114668E-08    0.26528055E-04
   12   -0.33522332E+03   -0.22148470E-08    0.10818575E-04
   13   -0.33522332E+03   -0.76050810E-09    0.64915178E-05

Total Energy:                     -326.0432180990 H        -8872.0874 eV
Extrapolated to 0K:               -326.0432180990 H        -8872.0874 eV
Total Mermin free energy:         -326.0432180990 H        -8872.0874 eV
Force related energy:             -326.0432180990 H        -8872.0874 eV

Volume:                              0.225994E+06 au^3   0.334889E+05 A^3
Pressure:                           -0.690656E-05 au    -0.203198E+09 Pa
>> Charges saved for restart in charges.bin

total energy  -3.2604322E+02 H       energy change  1.2115697E-03 H
gradient norm  3.6014767E-01 H/a0    max. gradient  2.8273337E-01 H/a0
step length    2.1542087E-01 a0      max. step      1.0024281E-01 a0

--------------------------------------------------------------------------------

***  Geometry step: 5

 iSCC Total electronic   Diff electronic      SCC error    
    1   -0.33522332E+03    0.00000000E+00    0.28422077E-01
    2   -0.33531674E+03   -0.93422118E-01    0.27824207E-01
    3   -0.33531676E+03   -0.18076007E-04    0.60039914E-02
    4   -0.33531700E+03   -0.23791008E-03    0.58740146E-02
    5   -0.33531700E+03   -0.32431082E-05    0.17716648E-02
    6   -0.33531706E+03   -0.59657981E-04    0.15914793E-02
    7   -0.33531706E+03   -0.82964198E-06    0.41437855E-03
    8   -0.33531706E+03   -0.17678021E-05    0.34183145E-03
    9   -0.33531706E+03   -0.10358320E-06    0.15742125E-03
   10   -0.33531706E+03   -0.18693805E-06    0.86742836E-04
   11   -0.33531706E+03   -0.11072188E-07    0.29238411E-04
   12   -0.33531706E+03   -0.28658178E-08    0.10870372E-04
   13   -0.33531706E+03   -0.11898464E-08    0.68273949E-05

Total Energy:                     -326.0532489983 H        -8872.3603 eV
Extrapolated to 0K:               -326.0532489983 H        -8872.3603 eV
Total Mermin free energy:         -326.0532489983 H        -8872.3603 eV
Force related energy:             -326.0532489983 H        -8872.3603 eV

Volume:                              0.225553E+06 au^3   0.334235E+05 A^3
Pressure:                           -0.570489E-05 au    -0.167843E+09 Pa
>> Charges saved for restart in charges.bin

total energy  -3.2605325E+02 H       energy change -1.0030899E-02 H
gradient norm  2.8066627E-01 H/a0    max. gradient  1.6780474E-01 H/a0
step length    1.3605722E-01 a0      max. step      1.0990925E-01 a0

--------------------------------------------------------------------------------

***  Geometry step: 6

 iSCC Total electronic   Diff electronic      SCC error    
    1   -0.33531706E+03    0.00000000E+00    0.18067469E-01
    2   -0.33569894E+03   -0.38187363E+00    0.17696241E-01
    3   -0.33569894E+03   -0.40857139E-05    0.27615442E-02
    4   -0.33569900E+03   -0.59610520E-04    0.26851799E-02
    5   -0.33569900E+03   -0.65689716E-06    0.80095144E-03
    6   -0.33569901E+03   -0.11964386E-04    0.71757443E-03
    7   -0.33569901E+03   -0.13340861E-06    0.22626537E-03
    8   -0.33569901E+03   -0.30099966E-06    0.17964704E-03
    9   -0.33569901E+03   -0.16214358E-07    0.82516985E-04
   10   -0.33569901E+03   -0.27123406E-07    0.53324048E-04
   11   -0.33569901E+03   -0.15733121E-08    0.14652422E-04
   12   -0.33569901E+03   -0.50721383E-09    0.39589039E-05

Total Energy:                     -326.0589937352 H        -8872.5166 eV
Extrapolated to 0K:               -326.0589937352 H        -8872.5166 eV
Total Mermin free energy:         -326.0589937352 H        -8872.5166 eV
Force related energy:             -326.0589937352 H        -8872.5166 eV

Volume:                              0.225502E+06 au^3   0.334160E+05 A^3
Pressure:                           -0.418011E-05 au    -0.122983E+09 Pa
>> Charges saved for restart in charges.bin

total energy  -3.2605899E+02 H       energy change -5.7447369E-03 H
gradient norm  1.5701908E-01 H/a0    max. gradient  3.9151021E-02 H/a0
step length    1.3972587E-01 a0      max. step      4.0761805E-02 a0

--------------------------------------------------------------------------------

***  Geometry step: 7

 iSCC Total electronic   Diff electronic      SCC error    
    1   -0.33569901E+03    0.00000000E+00    0.58599781E-02
    2   -0.33554706E+03    0.15194925E+00    0.57336018E-02
    3   -0.33554706E+03   -0.50959960E-06    0.14116040E-02
    4   -0.33554707E+03   -0.75959438E-05    0.13809188E-02
    5   -0.33554707E+03   -0.80386258E-07    0.36445899E-03
    6   -0.33554707E+03   -0.16259564E-05    0.32928672E-03
    7   -0.33554707E+03   -0.25616828E-07    0.97589533E-04
    8   -0.33554707E+03   -0.59300305E-07    0.76349469E-04
    9   -0.33554707E+03   -0.30649403E-08    0.19035596E-04
   10   -0.33554707E+03   -0.42356874E-08    0.14205386E-04
   11   -0.33554707E+03   -0.12215651E-09    0.49099118E-05

Total Energy:                     -326.0636575039 H        -8872.6436 eV
Extrapolated to 0K:               -326.0636575039 H        -8872.6436 eV
Total Mermin free energy:         -326.0636575039 H        -8872.6436 eV
Force related energy:             -326.0636575039 H        -8872.6436 eV

Volume:                              0.225571E+06 au^3   0.334262E+05 A^3
Pressure:                           -0.494253E-05 au    -0.145414E+09 Pa
>> Charges saved for restart in charges.bin

total energy  -3.2606366E+02 H       energy change -4.6637687E-03 H
gradient norm  5.8691194E-02 H/a0    max. gradient  3.0050232E-02 H/a0
step length    7.7915052E-02 a0      max. step      2.0421827E-02 a0

--------------------------------------------------------------------------------

***  Geometry step: 8

 iSCC Total electronic   Diff electronic      SCC error    
    1   -0.33554707E+03    0.00000000E+00    0.20758156E-02
    2   -0.33549609E+03    0.50984273E-01    0.20408703E-02
    3   -0.33549609E+03   -0.84513204E-07    0.52432080E-03
    4   -0.33549609E+03   -0.93448745E-06    0.51186598E-03
    5   -0.33549609E+03   -0.22903635E-07    0.15299243E-03
    6   -0.33549609E+03   -0.45187755E-06    0.13938491E-03
    7   -0.33549609E+03   -0.44472586E-08    0.37853937E-04
    8   -0.33549609E+03   -0.98253850E-08    0.28854275E-04
    9   -0.33549609E+03   -0.65796257E-09    0.72009579E-05

Total Energy:                     -326.0642477374 H        -8872.6596 eV
Extrapolated to 0K:               -326.0642477374 H        -8872.6596 eV
Total Mermin free energy:         -326.0642477374 H        -8872.6596 eV
Force related energy:             -326.0642477374 H        -8872.6596 eV

Volume:                              0.225493E+06 au^3   0.334146E+05 A^3
Pressure:                           -0.497017E-05 au    -0.146228E+09 Pa
>> Charges saved for restart in charges.bin

total energy  -3.2606425E+02 H       energy change -5.9023357E-04 H
gradient norm  3.5942723E-02 H/a0    max. gradient  8.7543599E-03 H/a0
step length    3.5336539E-02 a0      max. step      9.8427303E-03 a0

--------------------------------------------------------------------------------

***  Geometry step: 9

 iSCC Total electronic   Diff electronic      SCC error    
    1   -0.33549609E+03    0.00000000E+00    0.85864480E-03
    2   -0.33554785E+03   -0.51759678E-01    0.84413760E-03
    3   -0.33554785E+03   -0.10672352E-07    0.15157623E-03
    4   -0.33554785E+03   -0.18162245E-06    0.14717318E-03
    5   -0.33554785E+03   -0.18820288E-08    0.53352694E-04
    6   -0.33554785E+03   -0.30794354E-07    0.48520477E-04
    7   -0.33554785E+03   -0.30559022E-09    0.11040890E-04
    8   -0.33554785E+03   -0.78330231E-09    0.89314947E-05

Total Energy:                     -326.0646816773 H        -8872.6714 eV
Extrapolated to 0K:               -326.0646816773 H        -8872.6714 eV
Total Mermin free energy:         -326.0646816773 H        -8872.6714 eV
Force related energy:             -326.0646816773 H        -8872.6714 eV

Volume:                              0.225445E+06 au^3   0.334075E+05 A^3
Pressure:                           -0.466574E-05 au    -0.137271E+09 Pa
>> Charges saved for restart in charges.bin

total energy  -3.2606468E+02 H       energy change -4.3393984E-04 H
gradient norm  1.8398582E-02 H/a0    max. gradient  5.2764703E-03 H/a0
step length    2.0850013E-02 a0      max. step      5.8210645E-03 a0

--------------------------------------------------------------------------------

***  Geometry step: 10

 iSCC Total electronic   Diff electronic      SCC error    
    1   -0.33554785E+03    0.00000000E+00    0.81694305E-03
    2   -0.33559787E+03   -0.50020924E-01    0.79951131E-03
    3   -0.33559787E+03   -0.23561483E-07    0.18718140E-03
    4   -0.33559787E+03   -0.30580361E-06    0.18306290E-03
    5   -0.33559787E+03   -0.20627340E-08    0.53405002E-04
    6   -0.33559787E+03   -0.50501114E-07    0.47932321E-04
    7   -0.33559787E+03   -0.78682660E-09    0.17103300E-04
    8   -0.33559787E+03   -0.18263222E-08    0.14112608E-04
    9   -0.33559787E+03   -0.69064754E-10    0.30222835E-05

Total Energy:                     -326.0651465252 H        -8872.6841 eV
Extrapolated to 0K:               -326.0651465252 H        -8872.6841 eV
Total Mermin free energy:         -326.0651465252 H        -8872.6841 eV
Force related energy:             -326.0651465252 H        -8872.6841 eV

Volume:                              0.225365E+06 au^3   0.333957E+05 A^3
Pressure:                           -0.429249E-05 au    -0.126289E+09 Pa
>> Charges saved for restart in charges.bin

total energy  -3.2606515E+02 H       energy change -4.6484790E-04 H
gradient norm  2.1915437E-02 H/a0    max. gradient  4.5657723E-03 H/a0
step length    4.0280225E-02 a0      max. step      1.2686584E-02 a0

--------------------------------------------------------------------------------

***  Geometry step: 11

 iSCC Total electronic   Diff electronic      SCC error    
    1   -0.33559787E+03    0.00000000E+00    0.17201569E-02
    2   -0.33566917E+03   -0.71301913E-01    0.16766220E-02
    3   -0.33566917E+03   -0.10698193E-06    0.31781006E-03
    4   -0.33566918E+03   -0.15182423E-05    0.31018815E-03
    5   -0.33566918E+03   -0.56177782E-08    0.12348800E-03
    6   -0.33566918E+03   -0.12970315E-06    0.11300504E-03
    7   -0.33566918E+03   -0.26641942E-08    0.39222345E-04
    8   -0.33566918E+03   -0.58997784E-08    0.30405196E-04
    9   -0.33566918E+03   -0.17706725E-09    0.57947796E-05

Total Energy:                     -326.0659430391 H        -8872.7057 eV
Extrapolated to 0K:               -326.0659430391 H        -8872.7057 eV
Total Mermin free energy:         -326.0659430391 H        -8872.7057 eV
Force related energy:             -326.0659430391 H        -8872.7057 eV

Volume:                              0.225141E+06 au^3   0.333625E+05 A^3
Pressure:                           -0.350939E-05 au    -0.103250E+09 Pa
>> Charges saved for restart in charges.bin

total energy  -3.2606594E+02 H       energy change -7.9651394E-04 H
gradient norm  3.8514470E-02 H/a0    max. gradient  1.2120153E-02 H/a0
step length    1.0650444E-01 a0      max. step      3.3141495E-02 a0

--------------------------------------------------------------------------------

***  Geometry step: 12

 iSCC Total electronic   Diff electronic      SCC error    
    1   -0.33566918E+03    0.00000000E+00    0.12135458E-02
    2   -0.33571244E+03   -0.43269605E-01    0.11881978E-02
    3   -0.33571245E+03   -0.90931451E-07    0.34308201E-03
    4   -0.33571245E+03   -0.12269099E-05    0.33439323E-03
    5   -0.33571245E+03   -0.30933620E-08    0.73171656E-04
    6   -0.33571245E+03   -0.78778328E-07    0.65948614E-04
    7   -0.33571245E+03   -0.18580408E-08    0.23708666E-04
    8   -0.33571245E+03   -0.43241926E-08    0.19635471E-04
    9   -0.33571245E+03   -0.11579004E-09    0.50234588E-05

Total Energy:                     -326.0666099208 H        -8872.7239 eV
Extrapolated to 0K:               -326.0666099208 H        -8872.7239 eV
Total Mermin free energy:         -326.0666099208 H        -8872.7239 eV
Force related energy:             -326.0666099208 H        -8872.7239 eV

Volume:                              0.224923E+06 au^3   0.333302E+05 A^3
Pressure:                           -0.284382E-05 au    -0.836681E+08 Pa
>> Charges saved for restart in charges.bin

total energy  -3.2606661E+02 H       energy change -6.6688171E-04 H
gradient norm  3.0331267E-02 H/a0    max. gradient  1.0129750E-02 H/a0
step length    1.0910610E-01 a0      max. step      3.1925816E-02 a0

--------------------------------------------------------------------------------

***  Geometry step: 13

 iSCC Total electronic   Diff electronic      SCC error    
    1   -0.33571245E+03    0.00000000E+00    0.13401742E-02
    2   -0.33571571E+03   -0.32593296E-02    0.13073915E-02
    3   -0.33571571E+03   -0.70316901E-07    0.30529814E-03
    4   -0.33571571E+03   -0.95333201E-06    0.29888810E-03
    5   -0.33571571E+03   -0.55197802E-08    0.81751184E-04
    6   -0.33571571E+03   -0.12216805E-06    0.73355867E-04
    7   -0.33571571E+03   -0.20917810E-08    0.26070355E-04
    8   -0.33571571E+03   -0.51016400E-08    0.19571607E-04
    9   -0.33571571E+03   -0.12323653E-09    0.60292436E-05

Total Energy:                     -326.0670451944 H        -8872.7357 eV
Extrapolated to 0K:               -326.0670451944 H        -8872.7357 eV
Total Mermin free energy:         -326.0670451944 H        -8872.7357 eV
Force related energy:             -326.0670451944 H        -8872.7357 eV

Volume:                              0.224788E+06 au^3   0.333101E+05 A^3
Pressure:                           -0.251929E-05 au    -0.741200E+08 Pa
>> Charges saved for restart in charges.bin

total energy  -3.2606705E+02 H       energy change -4.3527363E-04 H
gradient norm  1.8245844E-02 H/a0    max. gradient  3.8616881E-03 H/a0
step length    8.3840684E-02 a0      max. step      1.8348691E-02 a0

--------------------------------------------------------------------------------

***  Geometry step: 14

 iSCC Total electronic   Diff electronic      SCC error    
    1   -0.33571571E+03    0.00000000E+00    0.99971306E-03
    2   -0.33571181E+03    0.38983739E-02    0.98241948E-03
    3   -0.33571181E+03   -0.41654687E-07    0.30670553E-03
    4   -0.33571181E+03   -0.55387761E-06    0.29574046E-03
    5   -0.33571181E+03   -0.37684345E-08    0.69125438E-04
    6   -0.33571181E+03   -0.90173444E-07    0.62517476E-04
    7   -0.33571181E+03   -0.11919497E-08    0.21337508E-04
    8   -0.33571181E+03   -0.27341684E-08    0.16989282E-04
    9   -0.33571181E+03   -0.11834800E-09    0.37295656E-05

Total Energy:                     -326.0673581564 H        -8872.7443 eV
Extrapolated to 0K:               -326.0673581564 H        -8872.7443 eV
Total Mermin free energy:         -326.0673581564 H        -8872.7443 eV
Force related energy:             -326.0673581564 H        -8872.7443 eV

Volume:                              0.224694E+06 au^3   0.332962E+05 A^3
Pressure:                           -0.231856E-05 au    -0.682145E+08 Pa
>> Charges saved for restart in charges.bin

total energy  -3.2606736E+02 H       energy change -3.1296200E-04 H
gradient norm  2.4926444E-02 H/a0    max. gradient  7.7828115E-03 H/a0
step length    6.9464729E-02 a0      max. step      1.2301565E-02 a0

--------------------------------------------------------------------------------

***  Geometry step: 15

 iSCC Total electronic   Diff electronic      SCC error    
    1   -0.33571181E+03    0.00000000E+00    0.78768704E-03
    2   -0.33571499E+03   -0.31833915E-02    0.76992858E-03
    3   -0.33571499E+03   -0.56132990E-07    0.27832493E-03
    4   -0.33571499E+03   -0.76552902E-06    0.27258977E-03
    5   -0.33571499E+03   -0.21669848E-08    0.10688688E-03
    6   -0.33571499E+03   -0.55060468E-07    0.96610947E-04
    7   -0.33571499E+03   -0.14279635E-08    0.29220308E-04
    8   -0.33571499E+03   -0.31727154E-08    0.23835098E-04
    9   -0.33571499E+03   -0.12659029E-09    0.33797136E-05

Total Energy:                     -326.0677743993 H        -8872.7556 eV
Extrapolated to 0K:               -326.0677743993 H        -8872.7556 eV
Total Mermin free energy:         -326.0677743993 H        -8872.7556 eV
Force related energy:             -326.0677743993 H        -8872.7556 eV

Volume:                              0.224644E+06 au^3   0.332888E+05 A^3
Pressure:                           -0.219440E-05 au    -0.645614E+08 Pa
>> Charges saved for restart in charges.bin

total energy  -3.2606777E+02 H       energy change -4.1624290E-04 H
gradient norm  2.9085206E-02 H/a0    max. gradient  1.1092766E-02 H/a0
step length    6.4205688E-02 a0      max. step      8.6358474E-03 a0

--------------------------------------------------------------------------------

***  Geometry step: 16

 iSCC Total electronic   Diff electronic      SCC error    
    1   -0.33571499E+03    0.00000000E+00    0.10634644E-02
    2   -0.33574320E+03   -0.28209626E-01    0.10266350E-02
    3   -0.33574320E+03   -0.15619486E-06    0.29623477E-03
    4   -0.33574321E+03   -0.21385446E-05    0.28787047E-03
    5   -0.33574321E+03   -0.33008973E-08    0.12672354E-03
    6   -0.33574321E+03   -0.68267866E-07    0.11349094E-03
    7   -0.33574321E+03   -0.23926532E-08    0.40224536E-04
    8   -0.33574321E+03   -0.52745008E-08    0.33919525E-04
    9   -0.33574321E+03   -0.16774493E-09    0.11125041E-04
   10   -0.33574321E+03   -0.19639401E-09    0.53642224E-05

Total Energy:                     -326.0684131108 H        -8872.7730 eV
Extrapolated to 0K:               -326.0684131108 H        -8872.7730 eV
Total Mermin free energy:         -326.0684131108 H        -8872.7730 eV
Force related energy:             -326.0684131108 H        -8872.7730 eV

Volume:                              0.224567E+06 au^3   0.332775E+05 A^3
Pressure:                           -0.191557E-05 au    -0.563580E+08 Pa
>> Charges saved for restart in charges.bin

total energy  -3.2606841E+02 H       energy change -6.3871143E-04 H
gradient norm  2.6589519E-02 H/a0    max. gradient  1.1139673E-02 H/a0
step length    1.1729660E-01 a0      max. step      1.6927039E-02 a0

--------------------------------------------------------------------------------

***  Geometry step: 17

 iSCC Total electronic   Diff electronic      SCC error    
    1   -0.33574321E+03    0.00000000E+00    0.91294184E-03
    2   -0.33578662E+03   -0.43410742E-01    0.89070050E-03
    3   -0.33578662E+03   -0.73887122E-07    0.25882689E-03
    4   -0.33578662E+03   -0.10085933E-05    0.25281921E-03
    5   -0.33578662E+03   -0.26150815E-08    0.65224083E-04
    6   -0.33578662E+03   -0.68825500E-07    0.59105604E-04
    7   -0.33578662E+03   -0.13421868E-08    0.23112357E-04
    8   -0.33578662E+03   -0.29871217E-08    0.18395372E-04
    9   -0.33578662E+03   -0.13017143E-09    0.34626262E-05

Total Energy:                     -326.0688344538 H        -8872.7844 eV
Extrapolated to 0K:               -326.0688344538 H        -8872.7844 eV
Total Mermin free energy:         -326.0688344538 H        -8872.7844 eV
Force related energy:             -326.0688344538 H        -8872.7844 eV

Volume:                              0.224469E+06 au^3   0.332629E+05 A^3
Pressure:                           -0.152748E-05 au    -0.449400E+08 Pa
>> Charges saved for restart in charges.bin

total energy  -3.2606883E+02 H       energy change -4.2134305E-04 H
gradient norm  1.8150575E-02 H/a0    max. gradient  7.0022810E-03 H/a0
step length    1.0856334E-01 a0      max. step      1.5397596E-02 a0

--------------------------------------------------------------------------------

***  Geometry step: 18

 iSCC Total electronic   Diff electronic      SCC error    
    1   -0.33578662E+03    0.00000000E+00    0.11242659E-02
    2   -0.33582899E+03   -0.42375132E-01    0.10985765E-02
    3   -0.33582899E+03   -0.47043045E-07    0.27428516E-03
    4   -0.33582899E+03   -0.62100776E-06    0.26804350E-03
    5   -0.33582899E+03   -0.43259547E-08    0.81620066E-04
    6   -0.33582899E+03   -0.10269599E-06    0.74356596E-04
    7   -0.33582899E+03   -0.13931754E-08    0.22852958E-04
    8   -0.33582899E+03   -0.33125502E-08    0.18136658E-04
    9   -0.33582899E+03   -0.13716317E-09    0.36048958E-05

Total Energy:                     -326.0691310962 H        -8872.7925 eV
Extrapolated to 0K:               -326.0691310962 H        -8872.7925 eV
Total Mermin free energy:         -326.0691310962 H        -8872.7925 eV
Force related energy:             -326.0691310962 H        -8872.7925 eV

Volume:                              0.224365E+06 au^3   0.332475E+05 A^3
Pressure:                           -0.112569E-05 au    -0.331188E+08 Pa
>> Charges saved for restart in charges.bin

total energy  -3.2606913E+02 H       energy change -2.9664243E-04 H
gradient norm  2.0030247E-02 H/a0    max. gradient  4.3481338E-03 H/a0
step length    9.9656045E-02 a0      max. step      1.4608667E-02 a0

--------------------------------------------------------------------------------

***  Geometry step: 19

 iSCC Total electronic   Diff electronic      SCC error    
    1   -0.33582899E+03    0.00000000E+00    0.11734554E-02
    2   -0.33585770E+03   -0.28703187E-01    0.11497347E-02
    3   -0.33585770E+03   -0.61965636E-07    0.30947634E-03
    4   -0.33585770E+03   -0.88709680E-06    0.29903713E-03
    5   -0.33585770E+03   -0.33371066E-08    0.61764038E-04
    6   -0.33585770E+03   -0.75692867E-07    0.57604738E-04
    7   -0.33585770E+03   -0.13823183E-08    0.24938319E-04
    8   -0.33585770E+03   -0.30842102E-08    0.19470824E-04
    9   -0.33585770E+03   -0.83161922E-10    0.51512154E-05

Total Energy:                     -326.0694357067 H        -8872.8008 eV
Extrapolated to 0K:               -326.0694357067 H        -8872.8008 eV
Total Mermin free energy:         -326.0694357067 H        -8872.8008 eV
Force related energy:             -326.0694357067 H        -8872.8008 eV

Volume:                              0.224272E+06 au^3   0.332337E+05 A^3
Pressure:                           -0.799077E-06 au    -0.235096E+08 Pa
>> Charges saved for restart in charges.bin

total energy  -3.2606944E+02 H       energy change -3.0461041E-04 H
gradient norm  2.1918028E-02 H/a0    max. gradient  9.1874550E-03 H/a0
step length    8.2691723E-02 a0      max. step      1.3237167E-02 a0

--------------------------------------------------------------------------------

***  Geometry step: 20

 iSCC Total electronic   Diff electronic      SCC error    
    1   -0.33585770E+03    0.00000000E+00    0.71720589E-03
    2   -0.33586619E+03   -0.84969192E-02    0.69684024E-03
    3   -0.33586619E+03   -0.77175571E-07    0.20172794E-03
    4   -0.33586620E+03   -0.10785580E-05    0.19753643E-03
    5   -0.33586620E+03   -0.24362521E-08    0.93616431E-04
    6   -0.33586620E+03   -0.49507548E-07    0.82837980E-04
    7   -0.33586620E+03   -0.15671731E-08    0.28861829E-04
    8   -0.33586620E+03   -0.35944367E-08    0.24549871E-04
    9   -0.33586620E+03   -0.71736395E-10    0.67367628E-05

Total Energy:                     -326.0697124282 H        -8872.8083 eV
Extrapolated to 0K:               -326.0697124282 H        -8872.8083 eV
Total Mermin free energy:         -326.0697124282 H        -8872.8083 eV
Force related energy:             -326.0697124282 H        -8872.8083 eV

Volume:                              0.224202E+06 au^3   0.332232E+05 A^3
Pressure:                           -0.601472E-06 au    -0.176959E+08 Pa
>> Charges saved for restart in charges.bin

total energy  -3.2606971E+02 H       energy change -2.7672158E-04 H
gradient norm  1.7729234E-02 H/a0    max. gradient  7.6505209E-03 H/a0
step length    6.4913318E-02 a0      max. step      1.0708929E-02 a0

--------------------------------------------------------------------------------

***  Geometry step: 21

 iSCC Total electronic   Diff electronic      SCC error    
    1   -0.33586620E+03    0.00000000E+00    0.60239941E-03
    2   -0.33586268E+03    0.35152876E-02    0.58941548E-03
    3   -0.33586268E+03   -0.52921507E-07    0.25584807E-03
    4   -0.33586268E+03   -0.75258595E-06    0.25009238E-03
    5   -0.33586268E+03   -0.19768436E-08    0.66131808E-04
    6   -0.33586268E+03   -0.42831061E-07    0.59644935E-04
    7   -0.33586268E+03   -0.15094770E-08    0.21350706E-04
    8   -0.33586268E+03   -0.33012952E-08    0.15695673E-04
    9   -0.33586268E+03   -0.66904704E-10    0.64605143E-05

Total Energy:                     -326.0698845500 H        -8872.8130 eV
Extrapolated to 0K:               -326.0698845500 H        -8872.8130 eV
Total Mermin free energy:         -326.0698845500 H        -8872.8130 eV
Force related energy:             -326.0698845500 H        -8872.8130 eV

Volume:                              0.224163E+06 au^3   0.332175E+05 A^3
Pressure:                           -0.521710E-06 au    -0.153492E+08 Pa
>> Charges saved for restart in charges.bin

total energy  -3.2606988E+02 H       energy change -1.7212179E-04 H
gradient norm  1.2784882E-02 H/a0    max. gradient  3.7897336E-03 H/a0
step length    5.3478935E-02 a0      max. step      8.1382968E-03 a0

--------------------------------------------------------------------------------

***  Geometry step: 22

 iSCC Total electronic   Diff electronic      SCC error    
    1   -0.33586268E+03    0.00000000E+00    0.95196400E-03
    2   -0.33586010E+03    0.25790416E-02    0.93147164E-03
    3   -0.33586010E+03   -0.20361995E-07    0.21530673E-03
    4   -0.33586010E+03   -0.28981049E-06    0.20881933E-03
    5   -0.33586010E+03   -0.22037057E-08    0.68648339E-04
    6   -0.33586010E+03   -0.47041283E-07    0.61260593E-04
    7   -0.33586010E+03   -0.97242037E-09    0.20529609E-04
    8   -0.33586010E+03   -0.21840378E-08    0.16236550E-04
    9   -0.33586010E+03   -0.83844043E-10    0.24899665E-05

Total Energy:                     -326.0700027958 H        -8872.8162 eV
Extrapolated to 0K:               -326.0700027958 H        -8872.8162 eV
Total Mermin free energy:         -326.0700027958 H        -8872.8162 eV
Force related energy:             -326.0700027958 H        -8872.8162 eV

Volume:                              0.224146E+06 au^3   0.332150E+05 A^3
Pressure:                           -0.490295E-06 au    -0.144250E+08 Pa
>> Charges saved for restart in charges.bin

total energy  -3.2607000E+02 H       energy change -1.1824582E-04 H
gradient norm  1.2292287E-02 H/a0    max. gradient  3.5524786E-03 H/a0
step length    3.7211432E-02 a0      max. step      5.5049769E-03 a0

--------------------------------------------------------------------------------

***  Geometry step: 23

 iSCC Total electronic   Diff electronic      SCC error    
    1   -0.33586010E+03    0.00000000E+00    0.98356053E-03
    2   -0.33586537E+03   -0.52717544E-02    0.96269334E-03
    3   -0.33586537E+03   -0.17514992E-07    0.15442918E-03
    4   -0.33586537E+03   -0.28029450E-06    0.14990398E-03
    5   -0.33586537E+03   -0.88522256E-09    0.44232954E-04
    6   -0.33586537E+03   -0.19716708E-07    0.40339867E-04
    7   -0.33586537E+03   -0.35430503E-09    0.13467449E-04
    8   -0.33586537E+03   -0.63744210E-09    0.10306134E-04
    9   -0.33586537E+03   -0.64289907E-10    0.27418273E-05

Total Energy:                     -326.0701255154 H        -8872.8196 eV
Extrapolated to 0K:               -326.0701255154 H        -8872.8196 eV
Total Mermin free energy:         -326.0701255154 H        -8872.8196 eV
Force related energy:             -326.0701255154 H        -8872.8196 eV

Volume:                              0.224127E+06 au^3   0.332123E+05 A^3
Pressure:                           -0.428032E-06 au    -0.125931E+08 Pa
>> Charges saved for restart in charges.bin

total energy  -3.2607013E+02 H       energy change -1.2271958E-04 H
gradient norm  1.2012464E-02 H/a0    max. gradient  5.5851547E-03 H/a0
step length    3.5636703E-02 a0      max. step      4.8174766E-03 a0

--------------------------------------------------------------------------------

***  Geometry step: 24

 iSCC Total electronic   Diff electronic      SCC error    
    1   -0.33586537E+03    0.00000000E+00    0.53195406E-03
    2   -0.33588054E+03   -0.15162455E-01    0.51869637E-03
    3   -0.33588054E+03   -0.32895741E-07    0.14131606E-03
    4   -0.33588054E+03   -0.49539511E-06    0.13868085E-03
    5   -0.33588054E+03   -0.90966523E-09    0.46021662E-04
    6   -0.33588054E+03   -0.18770834E-07    0.40403270E-04
    7   -0.33588054E+03   -0.76829565E-09    0.17128101E-04
    8   -0.33588054E+03   -0.16052013E-08    0.14075965E-04
    9   -0.33588054E+03   -0.43200998E-10    0.39255456E-05

Total Energy:                     -326.0702283472 H        -8872.8224 eV
Extrapolated to 0K:               -326.0702283472 H        -8872.8224 eV
Total Mermin free energy:         -326.0702283472 H        -8872.8224 eV
Force related energy:             -326.0702283472 H        -8872.8224 eV

Volume:                              0.224099E+06 au^3   0.332080E+05 A^3
Pressure:                           -0.303013E-06 au    -0.891494E+07 Pa
>> Charges saved for restart in charges.bin

total energy  -3.2607023E+02 H       energy change -1.0283183E-04 H
gradient norm  7.9772152E-03 H/a0    max. gradient  3.4733538E-03 H/a0
step length    4.8843351E-02 a0      max. step      6.5189283E-03 a0

--------------------------------------------------------------------------------

***  Geometry step: 25

 iSCC Total electronic   Diff electronic      SCC error    
    1   -0.33588054E+03    0.00000000E+00    0.31692892E-03
    2   -0.33588801E+03   -0.74746162E-02    0.31052084E-03
    3   -0.33588801E+03   -0.63071752E-08    0.79230215E-04
    4   -0.33588801E+03   -0.93006690E-07    0.77414290E-04
    5   -0.33588801E+03   -0.38363623E-09    0.24370817E-04
    6   -0.33588801E+03   -0.88904244E-08    0.21976110E-04
    7   -0.33588801E+03   -0.22652102E-09    0.85148841E-05

Total Energy:                     -326.0702546323 H        -8872.8231 eV
Extrapolated to 0K:               -326.0702546323 H        -8872.8231 eV
Total Mermin free energy:         -326.0702546323 H        -8872.8231 eV
Force related energy:             -326.0702546323 H        -8872.8231 eV

Volume:                              0.224082E+06 au^3   0.332056E+05 A^3
Pressure:                           -0.236729E-06 au    -0.696480E+07 Pa
>> Charges saved for restart in charges.bin

total energy  -3.2607025E+02 H       energy change -2.6285026E-05 H
gradient norm  6.8068794E-03 H/a0    max. gradient  1.1835325E-03 H/a0
step length    1.8881496E-02 a0      max. step      2.9938373E-03 a0

--------------------------------------------------------------------------------

***  Geometry step: 26

 iSCC Total electronic   Diff electronic      SCC error    
    1   -0.33588801E+03    0.00000000E+00    0.33175358E-03
    2   -0.33589054E+03   -0.25290130E-02    0.32611475E-03
    3   -0.33589054E+03   -0.56172667E-08    0.10576643E-03
    4   -0.33589054E+03   -0.85911608E-07    0.10281014E-03
    5   -0.33589054E+03   -0.48061111E-09    0.25009620E-04
    6   -0.33589054E+03   -0.97320481E-08    0.22821534E-04
    7   -0.33589054E+03   -0.20730795E-09    0.92824599E-05

Total Energy:                     -326.0702822767 H        -8872.8238 eV
Extrapolated to 0K:               -326.0702822767 H        -8872.8238 eV
Total Mermin free energy:         -326.0702822767 H        -8872.8238 eV
Force related energy:             -326.0702822767 H        -8872.8238 eV

Volume:                              0.224077E+06 au^3   0.332048E+05 A^3
Pressure:                           -0.214376E-06 au    -0.630716E+07 Pa
>> Charges saved for restart in charges.bin

total energy  -3.2607028E+02 H       energy change -2.7644396E-05 H
gradient norm  4.8690088E-03 H/a0    max. gradient  1.8868374E-03 H/a0
step length    1.1817306E-02 a0      max. step      2.4734705E-03 a0

--------------------------------------------------------------------------------

***  Geometry step: 27

 iSCC Total electronic   Diff electronic      SCC error    
    1   -0.33589054E+03    0.00000000E+00    0.56926451E-03
    2   -0.33588876E+03    0.17839115E-02    0.55598212E-03
    3   -0.33588876E+03   -0.74868467E-08    0.11190983E-03
    4   -0.33588876E+03   -0.11143067E-06    0.10909181E-03
    5   -0.33588876E+03   -0.50545168E-09    0.28100747E-04
    6   -0.33588876E+03   -0.10154565E-07    0.25905014E-04
    7   -0.33588876E+03   -0.18462742E-09    0.89229998E-05

Total Energy:                     -326.0703036930 H        -8872.8244 eV
Extrapolated to 0K:               -326.0703036930 H        -8872.8244 eV
Total Mermin free energy:         -326.0703036930 H        -8872.8244 eV
Force related energy:             -326.0703036930 H        -8872.8244 eV

Volume:                              0.224078E+06 au^3   0.332049E+05 A^3
Pressure:                           -0.222999E-06 au    -0.656086E+07 Pa
>> Charges saved for restart in charges.bin

total energy  -3.2607030E+02 H       energy change -2.1416376E-05 H
gradient norm  4.4938786E-03 H/a0    max. gradient  2.1959800E-03 H/a0
step length    1.1117467E-02 a0      max. step      2.1660855E-03 a0

--------------------------------------------------------------------------------

***  Geometry step: 28

 iSCC Total electronic   Diff electronic      SCC error    
    1   -0.33588876E+03    0.00000000E+00    0.20208311E-03
    2   -0.33588672E+03    0.20331276E-02    0.19721119E-03
    3   -0.33588672E+03   -0.50453650E-08    0.52334150E-04
    4   -0.33588672E+03   -0.69351017E-07    0.50953691E-04
    5   -0.33588672E+03   -0.15273827E-09    0.15300146E-04
    6   -0.33588672E+03   -0.31165541E-08    0.14107060E-04
    7   -0.33588672E+03   -0.81513463E-10    0.53745372E-05

Total Energy:                     -326.0703181769 H        -8872.8248 eV
Extrapolated to 0K:               -326.0703181769 H        -8872.8248 eV
Total Mermin free energy:         -326.0703181769 H        -8872.8248 eV
Force related energy:             -326.0703181769 H        -8872.8248 eV

Volume:                              0.224078E+06 au^3   0.332049E+05 A^3
Pressure:                           -0.230380E-06 au    -0.677802E+07 Pa
>> Charges saved for restart in charges.bin

total energy  -3.2607032E+02 H       energy change -1.4483903E-05 H
gradient norm  3.3896783E-03 H/a0    max. gradient  1.3978223E-03 H/a0
step length    1.1492131E-02 a0      max. step      2.0148478E-03 a0

--------------------------------------------------------------------------------

***  Geometry step: 29

 iSCC Total electronic   Diff electronic      SCC error    
    1   -0.33588672E+03    0.00000000E+00    0.25194782E-03
    2   -0.33588572E+03    0.10089102E-02    0.24568804E-03
    3   -0.33588572E+03   -0.42072088E-08    0.57631727E-04
    4   -0.33588572E+03   -0.55614464E-07    0.56381845E-04
    5   -0.33588572E+03   -0.12812507E-09    0.15717541E-04
    6   -0.33588572E+03   -0.30769911E-08    0.13719555E-04
    7   -0.33588572E+03   -0.76113338E-10    0.36458863E-05

Total Energy:                     -326.0703298160 H        -8872.8251 eV
Extrapolated to 0K:               -326.0703298160 H        -8872.8251 eV
Total Mermin free energy:         -326.0703298160 H        -8872.8251 eV
Force related energy:             -326.0703298160 H        -8872.8251 eV

Volume:                              0.224077E+06 au^3   0.332049E+05 A^3
Pressure:                           -0.233238E-06 au    -0.686209E+07 Pa
>> Charges saved for restart in charges.bin

total energy  -3.2607033E+02 H       energy change -1.1639014E-05 H
gradient norm  3.2056750E-03 H/a0    max. gradient  6.7773085E-04 H/a0
step length    1.2934551E-02 a0      max. step      1.9541405E-03 a0

--------------------------------------------------------------------------------

***  Geometry step: 30

 iSCC Total electronic   Diff electronic      SCC error    
    1   -0.33588572E+03    0.00000000E+00    0.24866173E-03
    2   -0.33588617E+03   -0.45608153E-03    0.24290168E-03
    3   -0.33588617E+03   -0.35209382E-08    0.62726292E-04
    4   -0.33588617E+03   -0.49485607E-07    0.61462755E-04
    5   -0.33588617E+03   -0.16564172E-09    0.20027684E-04
    6   -0.33588617E+03   -0.36820893E-08    0.17959553E-04
    7   -0.33588617E+03   -0.86288310E-10    0.68420204E-05

Total Energy:                     -326.0703393756 H        -8872.8254 eV
Extrapolated to 0K:               -326.0703393756 H        -8872.8254 eV
Total Mermin free energy:         -326.0703393756 H        -8872.8254 eV
Force related energy:             -326.0703393756 H        -8872.8254 eV

Volume:                              0.224076E+06 au^3   0.332046E+05 A^3
Pressure:                           -0.227581E-06 au    -0.669568E+07 Pa
>> Charges saved for restart in charges.bin

total energy  -3.2607034E+02 H       energy change -9.5596281E-06 H
gradient norm  4.1620038E-03 H/a0    max. gradient  1.5899472E-03 H/a0
step length    1.3756418E-02 a0      max. step      1.7818833E-03 a0

--------------------------------------------------------------------------------

***  Geometry step: 31

 iSCC Total electronic   Diff electronic      SCC error    
    1   -0.33588617E+03    0.00000000E+00    0.18098637E-03
    2   -0.33588835E+03   -0.21780452E-02    0.17688722E-03
    3   -0.33588835E+03   -0.15112391E-08    0.38652385E-04
    4   -0.33588835E+03   -0.24683402E-07    0.38027013E-04
    5   -0.33588835E+03   -0.71850081E-10    0.10642458E-04
    6   -0.33588835E+03   -0.15186288E-08    0.96487199E-05

Total Energy:                     -326.0703489251 H        -8872.8256 eV
Extrapolated to 0K:               -326.0703489251 H        -8872.8256 eV
Total Mermin free energy:         -326.0703489251 H        -8872.8256 eV
Force related energy:             -326.0703489251 H        -8872.8256 eV

Volume:                              0.224071E+06 au^3   0.332039E+05 A^3
Pressure:                           -0.207981E-06 au    -0.611901E+07 Pa
>> Charges saved for restart in charges.bin

total energy  -3.2607035E+02 H       energy change -9.5495290E-06 H
gradient norm  3.4051713E-03 H/a0    max. gradient  1.5322915E-03 H/a0
step length    8.6888395E-03 a0      max. step      1.0303334E-03 a0

--------------------------------------------------------------------------------

***  Geometry step: 32

 iSCC Total electronic   Diff electronic      SCC error    
    1   -0.33588835E+03    0.00000000E+00    0.17833102E-03
    2   -0.33589179E+03   -0.34359473E-02    0.17342067E-03
    3   -0.33589179E+03   -0.40428176E-08    0.54584048E-04
    4   -0.33589179E+03   -0.58127966E-07    0.53086333E-04
    5   -0.33589179E+03   -0.15973001E-09    0.15133925E-04
    6   -0.33589179E+03   -0.32135290E-08    0.13774013E-04
    7   -0.33589179E+03   -0.81683993E-10    0.54305913E-05

Total Energy:                     -326.0703606131 H        -8872.8260 eV
Extrapolated to 0K:               -326.0703606131 H        -8872.8260 eV
Total Mermin free energy:         -326.0703606131 H        -8872.8260 eV
Force related energy:             -326.0703606131 H        -8872.8260 eV

Volume:                              0.224064E+06 au^3   0.332028E+05 A^3
Pressure:                           -0.177459E-06 au    -0.522102E+07 Pa
>> Charges saved for restart in charges.bin

total energy  -3.2607036E+02 H       energy change -1.1687931E-05 H
gradient norm  2.6656482E-03 H/a0    max. gradient  5.1218260E-04 H/a0
step length    1.2085193E-02 a0      max. step      1.6493319E-03 a0

--------------------------------------------------------------------------------

***  Geometry step: 33

 iSCC Total electronic   Diff electronic      SCC error    
    1   -0.33589179E+03    0.00000000E+00    0.18474181E-03
    2   -0.33589378E+03   -0.19929672E-02    0.18007524E-03
    3   -0.33589378E+03   -0.32085268E-08    0.41288628E-04
    4   -0.33589378E+03   -0.43309456E-07    0.40330486E-04
    5   -0.33589378E+03   -0.10726353E-09    0.12805945E-04
    6   -0.33589378E+03   -0.23590019E-08    0.11524922E-04
    7   -0.33589378E+03   -0.50420113E-10    0.35396832E-05

Total Energy:                     -326.0703704594 H        -8872.8262 eV
Extrapolated to 0K:               -326.0703704594 H        -8872.8262 eV
Total Mermin free energy:         -326.0703704594 H        -8872.8262 eV
Force related energy:             -326.0703704594 H        -8872.8262 eV

Volume:                              0.224058E+06 au^3   0.332020E+05 A^3
Pressure:                           -0.157307E-06 au    -0.462812E+07 Pa
>> Charges saved for restart in charges.bin

total energy  -3.2607037E+02 H       energy change -9.8463665E-06 H
gradient norm  2.9396510E-03 H/a0    max. gradient  7.4360235E-04 H/a0
step length    1.2952334E-02 a0      max. step      1.6157059E-03 a0

--------------------------------------------------------------------------------

***  Geometry step: 34

 iSCC Total electronic   Diff electronic      SCC error    
    1   -0.33589378E+03    0.00000000E+00    0.19494263E-03
    2   -0.33589423E+03   -0.44996854E-03    0.18987763E-03
    3   -0.33589423E+03   -0.39399879E-08    0.45534828E-04
    4   -0.33589423E+03   -0.52744610E-07    0.44286995E-04
    5   -0.33589423E+03   -0.16763124E-09    0.13590313E-04
    6   -0.33589423E+03   -0.38692178E-08    0.11983280E-04
    7   -0.33589423E+03   -0.51159077E-10    0.57338936E-05

Total Energy:                     -326.0703813988 H        -8872.8265 eV
Extrapolated to 0K:               -326.0703813988 H        -8872.8265 eV
Total Mermin free energy:         -326.0703813988 H        -8872.8265 eV
Force related energy:             -326.0703813988 H        -8872.8265 eV

Volume:                              0.224056E+06 au^3   0.332016E+05 A^3
Pressure:                           -0.149578E-06 au    -0.440073E+07 Pa
>> Charges saved for restart in charges.bin

total energy  -3.2607038E+02 H       energy change -1.0939414E-05 H
gradient norm  3.7924196E-03 H/a0    max. gradient  1.6256449E-03 H/a0
step length    1.8471516E-02 a0      max. step      2.0981661E-03 a0

--------------------------------------------------------------------------------

***  Geometry step: 35

 iSCC Total electronic   Diff electronic      SCC error    
    1   -0.33589423E+03    0.00000000E+00    0.20053027E-03
    2   -0.33589344E+03    0.78603197E-03    0.19399761E-03
    3   -0.33589344E+03   -0.34815457E-08    0.53031673E-04
    4   -0.33589344E+03   -0.48816730E-07    0.51798420E-04
    5   -0.33589344E+03   -0.17786306E-09    0.15947830E-04
    6   -0.33589344E+03   -0.37691166E-08    0.14663410E-04
    7   -0.33589344E+03   -0.65199401E-10    0.58444485E-05

Total Energy:                     -326.0703919431 H        -8872.8268 eV
Extrapolated to 0K:               -326.0703919431 H        -8872.8268 eV
Total Mermin free energy:         -326.0703919431 H        -8872.8268 eV
Force related energy:             -326.0703919431 H        -8872.8268 eV

Volume:                              0.224055E+06 au^3   0.332015E+05 A^3
Pressure:                           -0.150558E-06 au    -0.442958E+07 Pa
>> Charges saved for restart in charges.bin

total energy  -3.2607039E+02 H       energy change -1.0544248E-05 H
gradient norm  4.1586683E-03 H/a0    max. gradient  1.7593212E-03 H/a0
step length    2.1909407E-02 a0      max. step      2.5993306E-03 a0

--------------------------------------------------------------------------------

***  Geometry step: 36

 iSCC Total electronic   Diff electronic      SCC error    
    1   -0.33589344E+03    0.00000000E+00    0.13316865E-03
    2   -0.33589274E+03    0.70650366E-03    0.12983148E-03
    3   -0.33589274E+03   -0.19412596E-08    0.35617713E-04
    4   -0.33589274E+03   -0.30652814E-07    0.34779754E-04
    5   -0.33589274E+03   -0.68837380E-10    0.12081971E-04
    6   -0.33589274E+03   -0.14511556E-08    0.10997965E-04
    7   -0.33589274E+03   -0.43428372E-10    0.36893266E-05

Total Energy:                     -326.0704034306 H        -8872.8271 eV
Extrapolated to 0K:               -326.0704034306 H        -8872.8271 eV
Total Mermin free energy:         -326.0704034306 H        -8872.8271 eV
Force related energy:             -326.0704034306 H        -8872.8271 eV

Volume:                              0.224054E+06 au^3   0.332013E+05 A^3
Pressure:                           -0.150190E-06 au    -0.441875E+07 Pa
>> Charges saved for restart in charges.bin

total energy  -3.2607040E+02 H       energy change -1.1487560E-05 H
gradient norm  2.9832800E-03 H/a0    max. gradient  9.2233349E-04 H/a0
step length    1.5983907E-02 a0      max. step      2.1050526E-03 a0

--------------------------------------------------------------------------------

***  Geometry step: 37

 iSCC Total electronic   Diff electronic      SCC error    
    1   -0.33589274E+03    0.00000000E+00    0.23846722E-03
    2   -0.33589240E+03    0.33258474E-03    0.23301546E-03
    3   -0.33589240E+03   -0.45093884E-08    0.52491104E-04
    4   -0.33589240E+03   -0.68491602E-07    0.51462768E-04
    5   -0.33589240E+03   -0.12408918E-09    0.17933602E-04
    6   -0.33589240E+03   -0.24875817E-08    0.15831108E-04
    7   -0.33589240E+03   -0.10936674E-09    0.56454272E-05

Total Energy:                     -326.0704189306 H        -8872.8275 eV
Extrapolated to 0K:               -326.0704189306 H        -8872.8275 eV
Total Mermin free energy:         -326.0704189306 H        -8872.8275 eV
Force related energy:             -326.0704189306 H        -8872.8275 eV

Volume:                              0.224052E+06 au^3   0.332011E+05 A^3
Pressure:                           -0.147442E-06 au    -0.433790E+07 Pa
>> Charges saved for restart in charges.bin

total energy  -3.2607042E+02 H       energy change -1.5499980E-05 H
gradient norm  3.3066441E-03 H/a0    max. gradient  9.3605982E-04 H/a0
step length    2.1452818E-02 a0      max. step      2.7725843E-03 a0

--------------------------------------------------------------------------------

***  Geometry step: 38

 iSCC Total electronic   Diff electronic      SCC error    
    1   -0.33589240E+03    0.00000000E+00    0.20513046E-03
    2   -0.33589344E+03   -0.10405736E-02    0.20028655E-03
    3   -0.33589344E+03   -0.31728860E-08    0.43369900E-04
    4   -0.33589344E+03   -0.46913499E-07    0.42460127E-04
    5   -0.33589344E+03   -0.10038548E-09    0.18708606E-04
    6   -0.33589344E+03   -0.18729338E-08    0.16491169E-04
    7   -0.33589344E+03   -0.83332452E-10    0.55710368E-05

Total Energy:                     -326.0704344992 H        -8872.8280 eV
Extrapolated to 0K:               -326.0704344992 H        -8872.8280 eV
Total Mermin free energy:         -326.0704344992 H        -8872.8280 eV
Force related energy:             -326.0704344992 H        -8872.8280 eV

Volume:                              0.224048E+06 au^3   0.332005E+05 A^3
Pressure:                           -0.134665E-06 au    -0.396197E+07 Pa
>> Charges saved for restart in charges.bin

total energy  -3.2607043E+02 H       energy change -1.5568532E-05 H
gradient norm  4.3964907E-03 H/a0    max. gradient  1.7402081E-03 H/a0
step length    2.4623316E-02 a0      max. step      3.2305736E-03 a0

--------------------------------------------------------------------------------

***  Geometry step: 39

 iSCC Total electronic   Diff electronic      SCC error    
    1   -0.33589344E+03    0.00000000E+00    0.20788613E-03
    2   -0.33589595E+03   -0.25026992E-02    0.20118275E-03
    3   -0.33589595E+03   -0.43567638E-08    0.55367513E-04
    4   -0.33589595E+03   -0.62808510E-07    0.54405345E-04
    5   -0.33589595E+03   -0.15700152E-09    0.16877985E-04
    6   -0.33589595E+03   -0.29206717E-08    0.15127086E-04
    7   -0.33589595E+03   -0.10447820E-09    0.71645488E-05

Total Energy:                     -326.0704556267 H        -8872.8285 eV
Extrapolated to 0K:               -326.0704556267 H        -8872.8285 eV
Total Mermin free energy:         -326.0704556267 H        -8872.8285 eV
Force related energy:             -326.0704556267 H        -8872.8285 eV

Volume:                              0.224042E+06 au^3   0.331996E+05 A^3
Pressure:                           -0.109485E-06 au    -0.322115E+07 Pa
>> Charges saved for restart in charges.bin

total energy  -3.2607046E+02 H       energy change -2.1127547E-05 H
gradient norm  5.3233740E-03 H/a0    max. gradient  2.1165042E-03 H/a0
step length    4.1082636E-02 a0      max. step      5.2548323E-03 a0

--------------------------------------------------------------------------------

***  Geometry step: 40

 iSCC Total electronic   Diff electronic      SCC error    
    1   -0.33589595E+03    0.00000000E+00    0.26572833E-03
    2   -0.33589930E+03   -0.33480897E-02    0.25732304E-03
    3   -0.33589930E+03   -0.50641802E-08    0.80295457E-04
    4   -0.33589930E+03   -0.73062722E-07    0.78936706E-04
    5   -0.33589930E+03   -0.24022029E-09    0.17035934E-04
    6   -0.33589930E+03   -0.49590199E-08    0.15545207E-04
    7   -0.33589930E+03   -0.11783641E-09    0.70960356E-05

Total Energy:                     -326.0704776089 H        -8872.8291 eV
Extrapolated to 0K:               -326.0704776089 H        -8872.8291 eV
Total Mermin free energy:         -326.0704776089 H        -8872.8291 eV
Force related energy:             -326.0704776089 H        -8872.8291 eV

Volume:                              0.224033E+06 au^3   0.331983E+05 A^3
Pressure:                           -0.767408E-07 au    -0.225779E+07 Pa
>> Charges saved for restart in charges.bin

total energy  -3.2607048E+02 H       energy change -2.1982190E-05 H
gradient norm  5.2428245E-03 H/a0    max. gradient  1.4395656E-03 H/a0
step length    5.1319280E-02 a0      max. step      6.4484968E-03 a0

--------------------------------------------------------------------------------

***  Geometry step: 41

 iSCC Total electronic   Diff electronic      SCC error    
    1   -0.33589930E+03    0.00000000E+00    0.17628510E-03
    2   -0.33590220E+03   -0.29019479E-02    0.17253798E-03
    3   -0.33590220E+03   -0.52497739E-08    0.73607617E-04
    4   -0.33590220E+03   -0.78888604E-07    0.72093910E-04
    5   -0.33590220E+03   -0.24942892E-09    0.15333890E-04
    6   -0.33590220E+03   -0.53719873E-08    0.13738961E-04
    7   -0.33590220E+03   -0.11499424E-09    0.55785881E-05

Total Energy:                     -326.0704989830 H        -8872.8297 eV
Extrapolated to 0K:               -326.0704989830 H        -8872.8297 eV
Total Mermin free energy:         -326.0704989830 H        -8872.8297 eV
Force related energy:             -326.0704989830 H        -8872.8297 eV

Volume:                              0.224024E+06 au^3   0.331969E+05 A^3
Pressure:                           -0.436480E-07 au    -0.128417E+07 Pa
>> Charges saved for restart in charges.bin

total energy  -3.2607050E+02 H       energy change -2.1374138E-05 H
gradient norm  3.4244040E-03 H/a0    max. gradient  5.2984321E-04 H/a0
step length    3.6188314E-02 a0      max. step      4.5002242E-03 a0

--------------------------------------------------------------------------------

***  Geometry step: 42

 iSCC Total electronic   Diff electronic      SCC error    
    1   -0.33590220E+03    0.00000000E+00    0.24473791E-03
    2   -0.33590420E+03   -0.19981068E-02    0.23895487E-03
    3   -0.33590420E+03   -0.73760020E-08    0.65222089E-04
    4   -0.33590420E+03   -0.11701951E-06    0.63758395E-04
    5   -0.33590420E+03   -0.29115199E-09    0.17461663E-04
    6   -0.33590420E+03   -0.60743446E-08    0.15297293E-04
    7   -0.33590420E+03   -0.14188117E-09    0.71614023E-05

Total Energy:                     -326.0705167248 H        -8872.8302 eV
Extrapolated to 0K:               -326.0705167248 H        -8872.8302 eV
Total Mermin free energy:         -326.0705167248 H        -8872.8302 eV
Force related energy:             -326.0705167248 H        -8872.8302 eV

Volume:                              0.224014E+06 au^3   0.331955E+05 A^3
Pressure:                           -0.136857E-07 au    -0.402647E+06 Pa
>> Charges saved for restart in charges.bin

total energy  -3.2607052E+02 H       energy change -1.7741756E-05 H
gradient norm  3.2405332E-03 H/a0    max. gradient  1.2924189E-03 H/a0
step length    2.7592692E-02 a0      max. step      3.4002394E-03 a0

--------------------------------------------------------------------------------

***  Geometry step: 43

 iSCC Total electronic   Diff electronic      SCC error    
    1   -0.33590420E+03    0.00000000E+00    0.17089745E-03
    2   -0.33590452E+03   -0.32057312E-03    0.16697437E-03
    3   -0.33590452E+03   -0.23396183E-08    0.35862655E-04
    4   -0.33590452E+03   -0.39256975E-07    0.35271225E-04
    5   -0.33590452E+03   -0.95838004E-10    0.12671854E-04
    6   -0.33590452E+03   -0.19368827E-08    0.11006590E-04
    7   -0.33590452E+03   -0.55706550E-10    0.49683121E-05

Total Energy:                     -326.0705276764 H        -8872.8305 eV
Extrapolated to 0K:               -326.0705276764 H        -8872.8305 eV
Total Mermin free energy:         -326.0705276764 H        -8872.8305 eV
Force related energy:             -326.0705276764 H        -8872.8305 eV

Volume:                              0.224010E+06 au^3   0.331949E+05 A^3
Pressure:                           -0.256063E-08 au    -0.753362E+05 Pa
>> Charges saved for restart in charges.bin

total energy  -3.2607053E+02 H       energy change -1.0951634E-05 H
gradient norm  3.1479754E-03 H/a0    max. gradient  1.3304653E-03 H/a0
step length    1.7856773E-02 a0      max. step      2.1925117E-03 a0

--------------------------------------------------------------------------------

***  Geometry step: 44

 iSCC Total electronic   Diff electronic      SCC error    
    1   -0.33590452E+03    0.00000000E+00    0.17556379E-03
    2   -0.33590390E+03    0.62082300E-03    0.17064075E-03
    3   -0.33590390E+03   -0.23816824E-08    0.40875566E-04
    4   -0.33590390E+03   -0.40006682E-07    0.39800964E-04
    5   -0.33590390E+03   -0.10589929E-09    0.16476257E-04
    6   -0.33590390E+03   -0.20577318E-08    0.14428474E-04
    7   -0.33590390E+03   -0.81001872E-10    0.53064156E-05

Total Energy:                     -326.0705408630 H        -8872.8309 eV
Extrapolated to 0K:               -326.0705408630 H        -8872.8309 eV
Total Mermin free energy:         -326.0705408630 H        -8872.8309 eV
Force related energy:             -326.0705408630 H        -8872.8309 eV

Volume:                              0.224009E+06 au^3   0.331948E+05 A^3
Pressure:                           -0.217549E-08 au    -0.640052E+05 Pa
>> Charges saved for restart in charges.bin

total energy  -3.2607054E+02 H       energy change -1.3186607E-05 H
gradient norm  3.1535457E-03 H/a0    max. gradient  6.5489821E-04 H/a0
step length    2.7040763E-02 a0      max. step      3.4205808E-03 a0

--------------------------------------------------------------------------------

***  Geometry step: 45

 iSCC Total electronic   Diff electronic      SCC error    
    1   -0.33590390E+03    0.00000000E+00    0.17998192E-03
    2   -0.33590236E+03    0.15378200E-02    0.17431935E-03
    3   -0.33590236E+03   -0.27696387E-08    0.46848163E-04
    4   -0.33590236E+03   -0.42241254E-07    0.45589038E-04
    5   -0.33590236E+03   -0.11311840E-09    0.16383444E-04
    6   -0.33590236E+03   -0.25407303E-08    0.14261304E-04
    7   -0.33590236E+03   -0.83844043E-10    0.44203784E-05

Total Energy:                     -326.0705526382 H        -8872.8312 eV
Extrapolated to 0K:               -326.0705526382 H        -8872.8312 eV
Total Mermin free energy:         -326.0705526382 H        -8872.8312 eV
Force related energy:             -326.0705526382 H        -8872.8312 eV

Volume:                              0.224014E+06 au^3   0.331954E+05 A^3
Pressure:                           -0.177676E-07 au    -0.522740E+06 Pa
>> Charges saved for restart in charges.bin

total energy  -3.2607055E+02 H       energy change -1.1775180E-05 H
gradient norm  3.8569590E-03 H/a0    max. gradient  7.9478468E-04 H/a0
step length    3.2256922E-02 a0      max. step      4.0082420E-03 a0

--------------------------------------------------------------------------------

***  Geometry step: 46

 iSCC Total electronic   Diff electronic      SCC error    
    1   -0.33590236E+03    0.00000000E+00    0.13440446E-03
    2   -0.33590176E+03    0.59981553E-03    0.13009516E-03
    3   -0.33590176E+03   -0.26467433E-08    0.40048937E-04
    4   -0.33590176E+03   -0.39695522E-07    0.39359555E-04
    5   -0.33590176E+03   -0.60083494E-10    0.11100594E-04
    6   -0.33590176E+03   -0.11151542E-08    0.99189260E-05

Total Energy:                     -326.0705628657 H        -8872.8315 eV
Extrapolated to 0K:               -326.0705628657 H        -8872.8315 eV
Total Mermin free energy:         -326.0705628657 H        -8872.8315 eV
Force related energy:             -326.0705628657 H        -8872.8315 eV

Volume:                              0.224017E+06 au^3   0.331959E+05 A^3
Pressure:                           -0.288163E-07 au    -0.847804E+06 Pa
>> Charges saved for restart in charges.bin

total energy  -3.2607056E+02 H       energy change -1.0227524E-05 H
gradient norm  2.8871147E-03 H/a0    max. gradient  1.0820813E-03 H/a0
step length    2.2971351E-02 a0      max. step      2.8922868E-03 a0

--------------------------------------------------------------------------------

***  Geometry step: 47

 iSCC Total electronic   Diff electronic      SCC error    
    1   -0.33590176E+03    0.00000000E+00    0.17431157E-03
    2   -0.33590253E+03   -0.76985085E-03    0.16996047E-03
    3   -0.33590253E+03   -0.28784370E-08    0.46715984E-04
    4   -0.33590253E+03   -0.44231399E-07    0.45845034E-04
    5   -0.33590253E+03   -0.11544898E-09    0.13335150E-04
    6   -0.33590253E+03   -0.21093456E-08    0.11703696E-04
    7   -0.33590253E+03   -0.69121597E-10    0.51650554E-05

Total Energy:                     -326.0705690666 H        -8872.8316 eV
Extrapolated to 0K:               -326.0705690666 H        -8872.8316 eV
Total Mermin free energy:         -326.0705690666 H        -8872.8316 eV
Force related energy:             -326.0705690666 H        -8872.8316 eV

Volume:                              0.224017E+06 au^3   0.331959E+05 A^3
Pressure:                           -0.262047E-07 au    -0.770968E+06 Pa
>> Charges saved for restart in charges.bin

total energy  -3.2607057E+02 H       energy change -6.2008584E-06 H
gradient norm  1.7930942E-03 H/a0    max. gradient  7.1060990E-04 H/a0
step length    5.1921882E-03 a0      max. step      9.7405943E-04 a0

--------------------------------------------------------------------------------

***  Geometry step: 48

 iSCC Total electronic   Diff electronic      SCC error    
    1   -0.33590253E+03    0.00000000E+00    0.11583148E-03
    2   -0.33590343E+03   -0.90244371E-03    0.11204557E-03
    3   -0.33590343E+03   -0.12964847E-08    0.25960175E-04
    4   -0.33590343E+03   -0.20195671E-07    0.25430272E-04
    5   -0.33590343E+03   -0.49169557E-10    0.94501495E-05

Total Energy:                     -326.0705721247 H        -8872.8317 eV
Extrapolated to 0K:               -326.0705721247 H        -8872.8317 eV
Total Mermin free energy:         -326.0705721247 H        -8872.8317 eV
Force related energy:             -326.0705721247 H        -8872.8317 eV

Volume:                              0.224016E+06 au^3   0.331957E+05 A^3
Pressure:                           -0.195157E-07 au    -0.574173E+06 Pa
>> Charges saved for restart in charges.bin

total energy  -3.2607057E+02 H       energy change -3.0580811E-06 H
gradient norm  1.2338157E-03 H/a0    max. gradient  2.0407845E-04 H/a0
step length    4.1873711E-03 a0      max. step      8.8944845E-04 a0

--------------------------------------------------------------------------------

***  Geometry step: 49

 iSCC Total electronic   Diff electronic      SCC error    
    1   -0.33590343E+03    0.00000000E+00    0.76011105E-04
    2   -0.33590392E+03   -0.48670735E-03    0.74228471E-04
    3   -0.33590392E+03   -0.54279781E-09    0.21200047E-04
    4   -0.33590392E+03   -0.77698132E-08    0.20784564E-04
    5   -0.33590392E+03   -0.26261660E-10    0.81892213E-05

Total Energy:                     -326.0705740938 H        -8872.8318 eV
Extrapolated to 0K:               -326.0705740938 H        -8872.8318 eV
Total Mermin free energy:         -326.0705740938 H        -8872.8318 eV
Force related energy:             -326.0705740938 H        -8872.8318 eV

Volume:                              0.224015E+06 au^3   0.331956E+05 A^3
Pressure:                           -0.148455E-07 au    -0.436769E+06 Pa
>> Charges saved for restart in charges.bin

total energy  -3.2607057E+02 H       energy change -1.9691801E-06 H
gradient norm  1.6037184E-03 H/a0    max. gradient  4.0153146E-04 H/a0
step length    4.1238602E-03 a0      max. step      1.0291093E-03 a0

--------------------------------------------------------------------------------

***  Geometry step: 50

 iSCC Total electronic   Diff electronic      SCC error    
    1   -0.33590392E+03    0.00000000E+00    0.74309186E-04
    2   -0.33590507E+03   -0.11511125E-02    0.72522792E-04
    3   -0.33590507E+03   -0.50181370E-09    0.24154603E-04
    4   -0.33590507E+03   -0.74743980E-08    0.23693466E-04
    5   -0.33590507E+03   -0.34276582E-10    0.76019840E-05

Total Energy:                     -326.0705768871 H        -8872.8318 eV
Extrapolated to 0K:               -326.0705768871 H        -8872.8318 eV
Total Mermin free energy:         -326.0705768871 H        -8872.8318 eV
Force related energy:             -326.0705768871 H        -8872.8318 eV

Volume:                              0.224010E+06 au^3   0.331949E+05 A^3
Pressure:                            0.746299E-09 au     0.219569E+05 Pa
>> Charges saved for restart in charges.bin

total energy  -3.2607058E+02 H       energy change -2.7932520E-06 H
gradient norm  1.8728012E-03 H/a0    max. gradient  7.4534778E-04 H/a0
step length    1.5784883E-02 a0      max. step      2.1279155E-03 a0

--------------------------------------------------------------------------------

***  Geometry step: 51

 iSCC Total electronic   Diff electronic      SCC error    
    1   -0.33590507E+03    0.00000000E+00    0.67828679E-04
    2   -0.33590467E+03    0.40186478E-03    0.65906505E-04
    3   -0.33590467E+03   -0.34356162E-09    0.14648324E-04
    4   -0.33590467E+03   -0.53429403E-08    0.14374340E-04
    5   -0.33590467E+03   -0.16655122E-10    0.69647757E-05

Total Energy:                     -326.0705791700 H        -8872.8319 eV
Extrapolated to 0K:               -326.0705791700 H        -8872.8319 eV
Total Mermin free energy:         -326.0705791700 H        -8872.8319 eV
Force related energy:             -326.0705791700 H        -8872.8319 eV

Volume:                              0.224010E+06 au^3   0.331949E+05 A^3
Pressure:                           -0.173008E-08 au    -0.509007E+05 Pa
>> Charges saved for restart in charges.bin

total energy  -3.2607058E+02 H       energy change -2.2828966E-06 H
gradient norm  1.4045605E-03 H/a0    max. gradient  5.5588534E-04 H/a0
step length    4.2407842E-03 a0      max. step      1.1032042E-03 a0

--------------------------------------------------------------------------------

***  Geometry step: 52

 iSCC Total electronic   Diff electronic      SCC error    
    1   -0.33590467E+03    0.00000000E+00    0.12418874E-03
    2   -0.33590376E+03    0.90632786E-03    0.12054418E-03
    3   -0.33590376E+03   -0.11517045E-08    0.27958195E-04
    4   -0.33590376E+03   -0.17426146E-07    0.27424909E-04
    5   -0.33590376E+03   -0.55251803E-10    0.10909542E-04
    6   -0.33590376E+03   -0.10087433E-08    0.94379408E-05

Total Energy:                     -326.0705820072 H        -8872.8320 eV
Extrapolated to 0K:               -326.0705820072 H        -8872.8320 eV
Total Mermin free energy:         -326.0705820072 H        -8872.8320 eV
Force related energy:             -326.0705820072 H        -8872.8320 eV

Volume:                              0.224012E+06 au^3   0.331952E+05 A^3
Pressure:                           -0.941832E-08 au    -0.277096E+06 Pa
>> Charges saved for restart in charges.bin

total energy  -3.2607058E+02 H       energy change -2.8371683E-06 H
gradient norm  1.0542666E-03 H/a0    max. gradient  1.9381439E-04 H/a0
step length    7.0342003E-03 a0      max. step      1.8051653E-03 a0

--------------------------------------------------------------------------------

***  Geometry step: 53

 iSCC Total electronic   Diff electronic      SCC error    
    1   -0.33590376E+03    0.00000000E+00    0.63910656E-04
    2   -0.33590352E+03    0.23630565E-03    0.62407499E-04
    3   -0.33590352E+03   -0.28092018E-09    0.14408536E-04
    4   -0.33590352E+03   -0.39622705E-08    0.14074507E-04
    5   -0.33590352E+03   -0.13585577E-10    0.47440302E-05

Total Energy:                     -326.0705834767 H        -8872.8320 eV
Extrapolated to 0K:               -326.0705834767 H        -8872.8320 eV
Total Mermin free energy:         -326.0705834767 H        -8872.8320 eV
Force related energy:             -326.0705834767 H        -8872.8320 eV

Volume:                              0.224013E+06 au^3   0.331953E+05 A^3
Pressure:                           -0.118965E-07 au    -0.350006E+06 Pa
>> Charges saved for restart in charges.bin

total energy  -3.2607058E+02 H       energy change -1.4695298E-06 H
gradient norm  1.2207236E-03 H/a0    max. gradient  3.9708078E-04 H/a0
step length    5.1536979E-03 a0      max. step      1.2406990E-03 a0

--------------------------------------------------------------------------------

***  Geometry step: 54

 iSCC Total electronic   Diff electronic      SCC error    
    1   -0.33590352E+03    0.00000000E+00    0.58864710E-04
    2   -0.33590360E+03   -0.80699394E-04    0.57436014E-04
    3   -0.33590360E+03   -0.44173021E-09    0.18541651E-04
    4   -0.33590360E+03   -0.63373591E-08    0.18134407E-04
    5   -0.33590360E+03   -0.17621460E-10    0.58150440E-05

Total Energy:                     -326.0705852307 H        -8872.8321 eV
Extrapolated to 0K:               -326.0705852307 H        -8872.8321 eV
Total Mermin free energy:         -326.0705852307 H        -8872.8321 eV
Force related energy:             -326.0705852307 H        -8872.8321 eV

Volume:                              0.224013E+06 au^3   0.331954E+05 A^3
Pressure:                           -0.121626E-07 au    -0.357836E+06 Pa
>> Charges saved for restart in charges.bin

total energy  -3.2607059E+02 H       energy change -1.7540457E-06 H
gradient norm  1.4091287E-03 H/a0    max. gradient  5.3080571E-04 H/a0
step length    7.7370490E-03 a0      max. step      1.8447222E-03 a0

--------------------------------------------------------------------------------

***  Geometry step: 55

 iSCC Total electronic   Diff electronic      SCC error    
    1   -0.33590360E+03    0.00000000E+00    0.68017774E-04
    2   -0.33590411E+03   -0.50536276E-03    0.66444074E-04
    3   -0.33590411E+03   -0.28069280E-09    0.17002216E-04
    4   -0.33590411E+03   -0.44171315E-08    0.16664900E-04
    5   -0.33590411E+03   -0.13130830E-10    0.58283534E-05

Total Energy:                     -326.0705863925 H        -8872.8321 eV
Extrapolated to 0K:               -326.0705863925 H        -8872.8321 eV
Total Mermin free energy:         -326.0705863925 H        -8872.8321 eV
Force related energy:             -326.0705863925 H        -8872.8321 eV

Volume:                              0.224013E+06 au^3   0.331952E+05 A^3
Pressure:                           -0.837803E-08 au    -0.246490E+06 Pa
>> Charges saved for restart in charges.bin

total energy  -3.2607059E+02 H       energy change -1.1618084E-06 H
gradient norm  1.1731764E-03 H/a0    max. gradient  3.0703080E-04 H/a0
step length    6.8419393E-03 a0      max. step      1.2655479E-03 a0

--------------------------------------------------------------------------------

***  Geometry step: 56

 iSCC Total electronic   Diff electronic      SCC error    
    1   -0.33590411E+03    0.00000000E+00    0.17738886E-03
    2   -0.33590430E+03   -0.19264912E-03    0.17370024E-03
    3   -0.33590430E+03   -0.56206773E-09    0.36725407E-04
    4   -0.33590430E+03   -0.70878627E-08    0.36021788E-04
    5   -0.33590430E+03   -0.67245765E-10    0.10811661E-04
    6   -0.33590430E+03   -0.14626949E-08    0.97313891E-05

Total Energy:                     -326.0705862710 H        -8872.8321 eV
Extrapolated to 0K:               -326.0705862710 H        -8872.8321 eV
Total Mermin free energy:         -326.0705862710 H        -8872.8321 eV
Force related energy:             -326.0705862710 H        -8872.8321 eV

Volume:                              0.224010E+06 au^3   0.331949E+05 A^3
Pressure:                           -0.283032E-08 au    -0.832709E+05 Pa
>> Charges saved for restart in charges.bin

total energy  -3.2607059E+02 H       energy change  1.2156039E-07 H
gradient norm  2.7841392E-03 H/a0    max. gradient  1.7916558E-03 H/a0
step length    1.0949885E-03 a0      max. step      2.9689669E-04 a0

--------------------------------------------------------------------------------

***  Geometry step: 57

 iSCC Total electronic   Diff electronic      SCC error    
    1   -0.33590430E+03    0.00000000E+00    0.91778659E-04
    2   -0.33590414E+03    0.15830340E-03    0.89706058E-04
    3   -0.33590414E+03   -0.26182079E-09    0.20663642E-04
    4   -0.33590414E+03   -0.37535983E-08    0.20309548E-04
    5   -0.33590414E+03   -0.21373125E-10    0.53130348E-05

Total Energy:                     -326.0705873273 H        -8872.8321 eV
Extrapolated to 0K:               -326.0705873273 H        -8872.8321 eV
Total Mermin free energy:         -326.0705873273 H        -8872.8321 eV
Force related energy:             -326.0705873273 H        -8872.8321 eV

Volume:                              0.224012E+06 au^3   0.331952E+05 A^3
Pressure:                           -0.770651E-08 au    -0.226733E+06 Pa
>> Charges saved for restart in charges.bin

total energy  -3.2607059E+02 H       energy change -1.0562649E-06 H
gradient norm  7.9300861E-04 H/a0    max. gradient  3.9927064E-04 H/a0
step length    1.2435826E-03 a0      max. step      2.2269562E-04 a0

--------------------------------------------------------------------------------

***  Geometry step: 58

 iSCC Total electronic   Diff electronic      SCC error    
    1   -0.33590414E+03    0.00000000E+00    0.37976720E-04
    2   -0.33590401E+03    0.12979247E-03    0.37203563E-04
    3   -0.33590401E+03   -0.75772277E-10    0.12321051E-04
    4   -0.33590401E+03   -0.10685426E-08    0.12044645E-04
    5   -0.33590401E+03   -0.46611603E-11    0.37476359E-05

Total Energy:                     -326.0705877940 H        -8872.8321 eV
Extrapolated to 0K:               -326.0705877940 H        -8872.8321 eV
Total Mermin free energy:         -326.0705877940 H        -8872.8321 eV
Force related energy:             -326.0705877940 H        -8872.8321 eV

Volume:                              0.224013E+06 au^3   0.331953E+05 A^3
Pressure:                           -0.100554E-07 au    -0.295839E+06 Pa
>> Charges saved for restart in charges.bin

total energy  -3.2607059E+02 H       energy change -4.6670442E-07 H
gradient norm  5.3533873E-04 H/a0    max. gradient  1.0216966E-04 H/a0
step length    1.2835583E-03 a0      max. step      2.1465196E-04 a0

--------------------------------------------------------------------------------

***  Geometry step: 59

 iSCC Total electronic   Diff electronic      SCC error    
    1   -0.33590401E+03    0.00000000E+00    0.36403844E-04
    2   -0.33590393E+03    0.84302182E-04    0.35255712E-04
    3   -0.33590393E+03   -0.12357759E-09    0.17245306E-04
    4   -0.33590393E+03   -0.17456614E-08    0.16914772E-04
    5   -0.33590393E+03   -0.51727511E-11    0.43610456E-05

Total Energy:                     -326.0705883316 H        -8872.8322 eV
Extrapolated to 0K:               -326.0705883316 H        -8872.8322 eV
Total Mermin free energy:         -326.0705883316 H        -8872.8322 eV
Force related energy:             -326.0705883316 H        -8872.8322 eV

Volume:                              0.224014E+06 au^3   0.331954E+05 A^3
Pressure:                           -0.115701E-07 au    -0.340404E+06 Pa
>> Charges saved for restart in charges.bin

total energy  -3.2607059E+02 H       energy change -5.3762341E-07 H
gradient norm  7.1623385E-04 H/a0    max. gradient  3.8177203E-04 H/a0
step length    2.4564875E-03 a0      max. step      5.2747087E-04 a0

--------------------------------------------------------------------------------

***  Geometry step: 60

 iSCC Total electronic   Diff electronic      SCC error    
    1   -0.33590393E+03    0.00000000E+00    0.35126941E-04
    2   -0.33590452E+03   -0.59271718E-03    0.34622480E-04
    3   -0.33590452E+03   -0.87140961E-10    0.13373545E-04
    4   -0.33590452E+03   -0.13492922E-08    0.12998592E-04
    5   -0.33590452E+03   -0.12732926E-10    0.34624967E-05

Total Energy:                     -326.0705890348 H        -8872.8322 eV
Extrapolated to 0K:               -326.0705890348 H        -8872.8322 eV
Total Mermin free energy:         -326.0705890348 H        -8872.8322 eV
Force related energy:             -326.0705890348 H        -8872.8322 eV

Volume:                              0.224011E+06 au^3   0.331950E+05 A^3
Pressure:                           -0.335750E-08 au    -0.987811E+05 Pa
>> Charges saved for restart in charges.bin

total energy  -3.2607059E+02 H       energy change -7.0325825E-07 H
gradient norm  7.7427228E-04 H/a0    max. gradient  4.2103246E-04 H/a0
step length    1.5809786E-02 a0      max. step      2.0174698E-03 a0

--------------------------------------------------------------------------------

***  Geometry step: 61

 iSCC Total electronic   Diff electronic      SCC error    
    1   -0.33590452E+03    0.00000000E+00    0.18345681E-04
    2   -0.33590446E+03    0.63367776E-04    0.17965118E-04
    3   -0.33590446E+03   -0.19213076E-10    0.50676241E-05

Total Energy:                     -326.0705892538 H        -8872.8322 eV
Extrapolated to 0K:               -326.0705892538 H        -8872.8322 eV
Total Mermin free energy:         -326.0705892538 H        -8872.8322 eV
Force related energy:             -326.0705892538 H        -8872.8322 eV

Volume:                              0.224011E+06 au^3   0.331950E+05 A^3
Pressure:                           -0.310572E-08 au    -0.913733E+05 Pa
>> Charges saved for restart in charges.bin

total energy  -3.2607059E+02 H       energy change -2.1899859E-07 H
gradient norm  5.3402475E-04 H/a0    max. gradient  2.2671528E-04 H/a0
step length    6.3672279E-04 a0      max. step      1.2116121E-04 a0

--------------------------------------------------------------------------------

***  Geometry step: 62

 iSCC Total electronic   Diff electronic      SCC error    
    1   -0.33590446E+03    0.00000000E+00    0.29095317E-04
    2   -0.33590438E+03    0.80788054E-04    0.28488931E-04
    3   -0.33590438E+03   -0.48885340E-10    0.77773381E-05

Total Energy:                     -326.0705895639 H        -8872.8322 eV
Extrapolated to 0K:               -326.0705895639 H        -8872.8322 eV
Total Mermin free energy:         -326.0705895639 H        -8872.8322 eV
Force related energy:             -326.0705895639 H        -8872.8322 eV

Volume:                              0.224011E+06 au^3   0.331949E+05 A^3
Pressure:                           -0.276115E-08 au    -0.812358E+05 Pa
>> Charges saved for restart in charges.bin

total energy  -3.2607059E+02 H       energy change -3.1010302E-07 H
gradient norm  3.9956167E-04 H/a0    max. gradient  1.0451755E-04 H/a0
step length    1.6116886E-03 a0      max. step      3.0613158E-04 a0

--------------------------------------------------------------------------------

***  Geometry step: 63

 iSCC Total electronic   Diff electronic      SCC error    
    1   -0.33590438E+03    0.00000000E+00    0.25463113E-04
    2   -0.33590422E+03    0.16316524E-03    0.24888851E-04
    3   -0.33590422E+03   -0.19440449E-10    0.70925751E-05

Total Energy:                     -326.0705898392 H        -8872.8322 eV
Extrapolated to 0K:               -326.0705898392 H        -8872.8322 eV
Total Mermin free energy:         -326.0705898392 H        -8872.8322 eV
Force related energy:             -326.0705898392 H        -8872.8322 eV

Volume:                              0.224011E+06 au^3   0.331951E+05 A^3
Pressure:                           -0.516865E-08 au    -0.152067E+06 Pa
>> Charges saved for restart in charges.bin

total energy  -3.2607059E+02 H       energy change -2.7528813E-07 H
gradient norm  4.8905512E-04 H/a0    max. gradient  2.0333043E-04 H/a0
step length    2.6292065E-03 a0      max. step      4.2330619E-04 a0

--------------------------------------------------------------------------------

***  Geometry step: 64

 iSCC Total electronic   Diff electronic      SCC error    
    1   -0.33590422E+03    0.00000000E+00    0.16052144E-04
    2   -0.33590426E+03   -0.40141889E-04    0.15707246E-04
    3   -0.33590426E+03   -0.27284841E-10    0.77819632E-05

Total Energy:                     -326.0705900893 H        -8872.8322 eV
Extrapolated to 0K:               -326.0705900893 H        -8872.8322 eV
Total Mermin free energy:         -326.0705900893 H        -8872.8322 eV
Force related energy:             -326.0705900893 H        -8872.8322 eV

Volume:                              0.224012E+06 au^3   0.331951E+05 A^3
Pressure:                           -0.543169E-08 au    -0.159806E+06 Pa
>> Charges saved for restart in charges.bin

total energy  -3.2607059E+02 H       energy change -2.5009348E-07 H
gradient norm  5.0035173E-04 H/a0    max. gradient  2.8121521E-04 H/a0
step length    2.3122979E-03 a0      max. step      3.2110971E-04 a0

--------------------------------------------------------------------------------

***  Geometry step: 65

 iSCC Total electronic   Diff electronic      SCC error    
    1   -0.33590426E+03    0.00000000E+00    0.27207957E-04
    2   -0.33590438E+03   -0.12562333E-03    0.26734717E-04
    3   -0.33590438E+03   -0.46156856E-10    0.96788084E-05

Total Energy:                     -326.0705903634 H        -8872.8322 eV
Extrapolated to 0K:               -326.0705903634 H        -8872.8322 eV
Total Mermin free energy:         -326.0705903634 H        -8872.8322 eV
Force related energy:             -326.0705903634 H        -8872.8322 eV

Volume:                              0.224012E+06 au^3   0.331951E+05 A^3
Pressure:                           -0.547151E-08 au    -0.160977E+06 Pa
>> Charges saved for restart in charges.bin

total energy  -3.2607059E+02 H       energy change -2.7410238E-07 H
gradient norm  5.5735706E-04 H/a0    max. gradient  1.6463030E-04 H/a0
step length    3.0442702E-03 a0      max. step      4.2965121E-04 a0

--------------------------------------------------------------------------------

***  Geometry step: 66

 iSCC Total electronic   Diff electronic      SCC error    
    1   -0.33590438E+03    0.00000000E+00    0.26661365E-04
    2   -0.33590439E+03   -0.64653613E-05    0.25999861E-04
    3   -0.33590439E+03   -0.39563020E-10    0.70986612E-05

Total Energy:                     -326.0705905618 H        -8872.8322 eV
Extrapolated to 0K:               -326.0705905618 H        -8872.8322 eV
Total Mermin free energy:         -326.0705905618 H        -8872.8322 eV
Force related energy:             -326.0705905618 H        -8872.8322 eV

Volume:                              0.224012E+06 au^3   0.331951E+05 A^3
Pressure:                           -0.571237E-08 au    -0.168064E+06 Pa
>> Charges saved for restart in charges.bin

total energy  -3.2607059E+02 H       energy change -1.9834653E-07 H
gradient norm  4.5151633E-04 H/a0    max. gradient  9.7522981E-05 H/a0
step length    9.7549847E-04 a0      max. step      1.6663959E-04 a0

Geometry converged

--------------------------------------------------------------------------------
DFTB+ running times                          cpu [s]             wall clock [s]
--------------------------------------------------------------------------------
Global initialisation                  +       0.00 (  0.0%)       0.04 (  0.0%)
Pre-SCC initialisation                 +     131.54 ( 15.6%)       4.32 (  3.5%)
SCC                                    +     633.62 ( 75.3%)     103.99 ( 84.5%)
Post-SCC processing                    +      75.59 (  9.0%)      14.64 ( 11.9%)
Post-geometry optimisation             +       0.39 (  0.0%)       0.04 (  0.0%)
--------------------------------------------------------------------------------
Missing                                +       0.00 (  0.0%)       0.00 (  0.0%)
Total                                  =     841.15 (100.0%)     123.02 (100.0%)
--------------------------------------------------------------------------------
