|===============================================================================
|
|  DFTB+ release 22.2
|
|  Copyright (C) 2006 - 2022  DFTB+ developers group
|
|===============================================================================
|
|  When publishing results obtained with DFTB+, please cite the following
|  reference:
|
|  * DFTB+, a software package for efficient approximate density functional
|    theory based atomistic simulations, J. Chem. Phys. 152, 124101 (2020).
|    [doi: 10.1063/1.5143190]
|
|  You should also cite additional publications crediting the parametrization
|  data you use. Please consult the documentation of the SK-files for the
|  references.
|
|===============================================================================

Reading input file 'dftb_in.hsd'
Parser version: 12

--------------------------------------------------------------------------------
Reading SK-files:
/home/usr/bin/dftb_plus/parameters/slako/matsci/matsci-0-3/C-C.skf
/home/usr/bin/dftb_plus/parameters/slako/matsci/matsci-0-3/C-H.skf
/home/usr/bin/dftb_plus/parameters/slako/matsci/matsci-0-3/H-H.skf
Done.


Processed input in HSD format written to 'dftb_pin.hsd'

Starting initialization...
--------------------------------------------------------------------------------
Chosen random seed:          290121760
Mode:                        Static calculation
Self consistent charges:     Yes
SCC-tolerance:                 0.100000E-04
Max. scc iterations:                   1000
Shell resolved Hubbard:      No
Spin polarisation:           No
Nr. of up electrons:           990.000000
Nr. of down electrons:         990.000000
Periodic boundaries:         No
Electronic solver:           Relatively robust
Mixer:                       Simple mixer
Mixing parameter:                  0.050000
Maximal SCC-cycles:                    1000
Electronic temperature:              0.950045E-03 H      0.258520E-01 eV
Initial charges:             Set automatically (system chrg:   0.000E+00)
Included shells:             C:  s, p
                             H:  s
Using Lennard-Jones dispersion corrections
Extra options:
                             Mulliken analysis

--------------------------------------------------------------------------------

***  Geometry step: 0

 iSCC Total electronic   Diff electronic      SCC error    
    1    0.00000000E+00    0.00000000E+00    0.90337705E-01
    2   -0.91323102E+03   -0.91323102E+03    0.83939352E-01
    3   -0.91323280E+03   -0.17765172E-02    0.78056609E-01
    4   -0.91323418E+03   -0.13878944E-02    0.72636884E-01
    5   -0.91323529E+03   -0.11037394E-02    0.67634651E-01
    6   -0.91323618E+03   -0.89169936E-03    0.63010280E-01
    7   -0.91323691E+03   -0.73025089E-03    0.58808716E-01
    8   -0.91323752E+03   -0.60492637E-03    0.54955103E-01
    9   -0.91323802E+03   -0.50588616E-03    0.51380562E-01
   10   -0.91323845E+03   -0.42634817E-03    0.48060763E-01
   11   -0.91323881E+03   -0.36156704E-03    0.44974083E-01
   12   -0.91323912E+03   -0.30816702E-03    0.42101234E-01
   13   -0.91323938E+03   -0.26370338E-03    0.39424949E-01
   14   -0.91323961E+03   -0.22637216E-03    0.36929716E-01
   15   -0.91323980E+03   -0.19481666E-03    0.34601554E-01
   16   -0.91323997E+03   -0.16799725E-03    0.32427822E-01
   17   -0.91324011E+03   -0.14510294E-03    0.30397054E-01
   18   -0.91324024E+03   -0.12549054E-03    0.28498823E-01
   19   -0.91324035E+03   -0.10864234E-03    0.26723618E-01
   20   -0.91324044E+03   -0.94136149E-04    0.25062745E-01
>> Charges saved for restart in charges.dat
   21   -0.91324052E+03   -0.81623835E-04    0.23508233E-01
   22   -0.91324060E+03   -0.70815596E-04    0.22052764E-01
   23   -0.91324066E+03   -0.61468314E-04    0.20689602E-01
   24   -0.91324071E+03   -0.53376699E-04    0.19412536E-01
   25   -0.91324076E+03   -0.46366498E-04    0.18215827E-01
   26   -0.91324080E+03   -0.40289178E-04    0.17094170E-01
   27   -0.91324083E+03   -0.35017678E-04    0.16042647E-01
   28   -0.91324086E+03   -0.30443008E-04    0.15056695E-01
   29   -0.91324089E+03   -0.26471465E-04    0.14132080E-01
   30   -0.91324091E+03   -0.23022338E-04    0.13264861E-01
   31   -0.91324093E+03   -0.20026001E-04    0.12451372E-01
   32   -0.91324095E+03   -0.17422326E-04    0.11688198E-01
   33   -0.91324096E+03   -0.15159315E-04    0.10972153E-01
   34   -0.91324098E+03   -0.13191979E-04    0.10300268E-01
   35   -0.91324099E+03   -0.11481357E-04    0.96697675E-02
   36   -0.91324100E+03   -0.99936938E-05    0.90780609E-02
   37   -0.91324101E+03   -0.86997164E-05    0.85227260E-02
   38   -0.91324102E+03   -0.75740453E-05    0.80014975E-02
   39   -0.91324102E+03   -0.65946513E-05    0.75122565E-02
   40   -0.91324103E+03   -0.57424173E-05    0.70530196E-02
>> Charges saved for restart in charges.dat
   41   -0.91324103E+03   -0.50007488E-05    0.66219299E-02
   42   -0.91324104E+03   -0.43552211E-05    0.62172481E-02
   43   -0.91324104E+03   -0.37933182E-05    0.58373451E-02
   44   -0.91324104E+03   -0.33041541E-05    0.54806941E-02
   45   -0.91324105E+03   -0.28782741E-05    0.51458641E-02
   46   -0.91324105E+03   -0.25074573E-05    0.48315136E-02
   47   -0.91324105E+03   -0.21845542E-05    0.45363848E-02
   48   -0.91324105E+03   -0.19033549E-05    0.42592980E-02
   49   -0.91324106E+03   -0.16584486E-05    0.39991467E-02
   50   -0.91324106E+03   -0.14451427E-05    0.37548931E-02
   51   -0.91324106E+03   -0.12593371E-05    0.35255634E-02
   52   -0.91324106E+03   -0.10974818E-05    0.33102439E-02
   53   -0.91324106E+03   -0.95648033E-06    0.31080773E-02
   54   -0.91324106E+03   -0.83363182E-06    0.29182591E-02
   55   -0.91324106E+03   -0.72659986E-06    0.27400342E-02
   56   -0.91324106E+03   -0.63333982E-06    0.25726938E-02
   57   -0.91324106E+03   -0.55207272E-06    0.24155728E-02
   58   -0.91324106E+03   -0.48125708E-06    0.22680467E-02
   59   -0.91324106E+03   -0.41954195E-06    0.21295293E-02
   60   -0.91324106E+03   -0.36575625E-06    0.19994704E-02
>> Charges saved for restart in charges.dat
   61   -0.91324106E+03   -0.31887794E-06    0.18773533E-02
   62   -0.91324106E+03   -0.27801855E-06    0.17626932E-02
   63   -0.91324107E+03   -0.24240387E-06    0.16550347E-02
   64   -0.91324107E+03   -0.21136123E-06    0.15539502E-02
   65   -0.91324107E+03   -0.18430023E-06    0.14590385E-02
   66   -0.91324107E+03   -0.16070680E-06    0.13699226E-02
   67   -0.91324107E+03   -0.14013949E-06    0.12862487E-02
   68   -0.91324107E+03   -0.12221210E-06    0.12076847E-02
   69   -0.91324107E+03   -0.10657584E-06    0.11339185E-02
   70   -0.91324107E+03   -0.92947630E-07    0.10646573E-02
   71   -0.91324107E+03   -0.81060875E-07    0.99962602E-03
   72   -0.91324107E+03   -0.70699684E-07    0.93856648E-03
   73   -0.91324107E+03   -0.61663400E-07    0.88123619E-03
   74   -0.91324107E+03   -0.53781946E-07    0.82740746E-03
   75   -0.91324107E+03   -0.46911623E-07    0.77686653E-03
   76   -0.91324107E+03   -0.40919531E-07    0.72941265E-03
   77   -0.91324107E+03   -0.35693233E-07    0.68485735E-03
   78   -0.91324107E+03   -0.31135187E-07    0.64302363E-03
   79   -0.91324107E+03   -0.27161491E-07    0.60374532E-03
   80   -0.91324107E+03   -0.23692110E-07    0.56686638E-03
>> Charges saved for restart in charges.dat
   81   -0.91324107E+03   -0.20670200E-07    0.53224028E-03
   82   -0.91324107E+03   -0.18031756E-07    0.49972944E-03
   83   -0.91324107E+03   -0.15731189E-07    0.46920469E-03
   84   -0.91324107E+03   -0.13724389E-07    0.44054473E-03
   85   -0.91324107E+03   -0.11973384E-07    0.41363567E-03
   86   -0.91324107E+03   -0.10447252E-07    0.38837056E-03
   87   -0.91324107E+03   -0.91150696E-08    0.36464900E-03
   88   -0.91324107E+03   -0.79539859E-08    0.34237669E-03
   89   -0.91324107E+03   -0.69395583E-08    0.32146511E-03
   90   -0.91324107E+03   -0.60542789E-08    0.30183114E-03
   91   -0.91324107E+03   -0.52849600E-08    0.28339673E-03
   92   -0.91324107E+03   -0.46090918E-08    0.26608859E-03
   93   -0.91324107E+03   -0.40224677E-08    0.24983792E-03
   94   -0.91324107E+03   -0.35109906E-08    0.23458011E-03
   95   -0.91324107E+03   -0.30636329E-08    0.22025450E-03
   96   -0.91324107E+03   -0.26727776E-08    0.20680413E-03
   97   -0.91324107E+03   -0.23331950E-08    0.19417553E-03
   98   -0.91324107E+03   -0.20361313E-08    0.18231849E-03
   99   -0.91324107E+03   -0.17770390E-08    0.17118586E-03
  100   -0.91324107E+03   -0.15501200E-08    0.16073337E-03
>> Charges saved for restart in charges.dat
  101   -0.91324107E+03   -0.13544650E-08    0.15091947E-03
  102   -0.91324107E+03   -0.11808652E-08    0.14170513E-03
  103   -0.91324107E+03   -0.10300027E-08    0.13305372E-03
  104   -0.91324107E+03   -0.89926289E-09    0.12493084E-03
  105   -0.91324107E+03   -0.78694029E-09    0.11730418E-03
  106   -0.91324107E+03   -0.68519057E-09    0.11014343E-03
  107   -0.91324107E+03   -0.59833383E-09    0.10342011E-03
  108   -0.91324107E+03   -0.52170890E-09    0.97107496E-04
  109   -0.91324107E+03   -0.45656634E-09    0.91180485E-04
  110   -0.91324107E+03   -0.39744918E-09    0.85615514E-04
  111   -0.91324107E+03   -0.34856384E-09    0.80390458E-04
  112   -0.91324107E+03   -0.30172487E-09    0.75484544E-04
  113   -0.91324107E+03   -0.26614089E-09    0.70878272E-04
  114   -0.91324107E+03   -0.22953373E-09    0.66553329E-04
  115   -0.91324107E+03   -0.20224888E-09    0.62492525E-04
  116   -0.91324107E+03   -0.17496404E-09    0.58679717E-04
  117   -0.91324107E+03   -0.15484147E-09    0.55099753E-04
  118   -0.91324107E+03   -0.13346835E-09    0.51738402E-04
  119   -0.91324107E+03   -0.11880275E-09    0.48582308E-04
  120   -0.91324107E+03   -0.10038548E-09    0.45618928E-04
>> Charges saved for restart in charges.dat
  121   -0.91324107E+03   -0.90267349E-10    0.42836486E-04
  122   -0.91324107E+03   -0.76965989E-10    0.40223928E-04
  123   -0.91324107E+03   -0.69690032E-10    0.37770872E-04
  124   -0.91324107E+03   -0.57639227E-10    0.35467575E-04
  125   -0.91324107E+03   -0.53319127E-10    0.33304885E-04
  126   -0.91324107E+03   -0.43655746E-10    0.31274213E-04
  127   -0.91324107E+03   -0.40358827E-10    0.29367492E-04
  128   -0.91324107E+03   -0.34560799E-10    0.27577151E-04
  129   -0.91324107E+03   -0.29444891E-10    0.25896081E-04
  130   -0.91324107E+03   -0.27284841E-10    0.24317605E-04
  131   -0.91324107E+03   -0.23192115E-10    0.22835458E-04
  132   -0.91324107E+03   -0.19781510E-10    0.21443754E-04
  133   -0.91324107E+03   -0.18872015E-10    0.20136971E-04
  134   -0.91324107E+03   -0.14210855E-10    0.18909920E-04
  135   -0.91324107E+03   -0.12619239E-10    0.17757733E-04
  136   -0.91324107E+03   -0.11709744E-10    0.16675838E-04
  137   -0.91324107E+03   -0.10118129E-10    0.15659940E-04
  138   -0.91324107E+03   -0.95496944E-11    0.14706012E-04
  139   -0.91324107E+03   -0.77307050E-11    0.13810267E-04
  140   -0.91324107E+03   -0.68212103E-11    0.12969155E-04
>> Charges saved for restart in charges.dat
  141   -0.91324107E+03   -0.61390892E-11    0.12179338E-04
  142   -0.91324107E+03   -0.57980287E-11    0.11437686E-04
  143   -0.91324107E+03   -0.40927262E-11    0.10741257E-04
  144   -0.91324107E+03   -0.44337867E-11    0.10087291E-04
  145   -0.91324107E+03   -0.20463631E-11    0.94731963E-05
>> Charges saved for restart in charges.dat

Total Energy:                     -841.1875604922 H       -22889.8781 eV
Extrapolated to 0K:               -841.1875605122 H       -22889.8781 eV
Total Mermin free energy:         -841.1875605322 H       -22889.8781 eV
Force related energy:             -841.1875605322 H       -22889.8781 eV


--------------------------------------------------------------------------------
DFTB+ running times                          cpu [s]             wall clock [s]
--------------------------------------------------------------------------------
Global initialisation                  +       0.01 (  0.0%)       0.05 (  0.0%)
Pre-SCC initialisation                 +       0.20 (  0.0%)       0.06 (  0.0%)
SCC                                    +     495.75 (100.0%)     222.78 ( 99.9%)
Post-geometry optimisation             +       0.00 (  0.0%)       0.04 (  0.0%)
--------------------------------------------------------------------------------
Missing                                +       0.00 (  0.0%)       0.00 (  0.0%)
Total                                  =     495.96 (100.0%)     222.94 (100.0%)
--------------------------------------------------------------------------------