  270
Geometry Step: 2
    C      0.35911052      1.68696600     -0.09077989      3.94034670
    C      0.35633205      0.26431833     -0.09088895      3.94036775
    C      1.58658806     -0.45005635     -0.09097685      3.94033982
    C      2.82019053      0.25863781     -0.09082747      3.94040804
    C      2.82293428      1.68140756     -0.09087878      3.94046430
    C      1.59254589      2.39586227     -0.09091715      3.94036048
    C      4.05336222     -0.45763351     -0.09075234      4.06560752
    C      5.11376927     -1.07994407     -0.09059905      3.99331888
    C      6.29641114     -1.76922270     -0.09047799      3.99923664
    C      7.36467538     -2.39148576     -0.09037445      4.00145425
    C      8.54564391     -3.07575971     -0.09034121      4.00145631
    C      9.61661535     -3.69330681     -0.09038095      3.99922969
    C     10.80268222     -4.37656670     -0.09043411      3.99332567
    C     11.87010995     -4.98667711     -0.09052669      4.06559856
    C      4.05905030      2.39224147     -0.09090026      4.06558975
    C      5.12269324      3.00882606     -0.09093107      3.99335345
    C      6.30800954      3.69315393     -0.09095584      3.99922547
    C      7.37838651      4.31162923     -0.09097566      4.00147137
    C      8.56131828      4.99223451     -0.09098080      4.00145784
    C      9.63368177      5.60723491     -0.09097100      3.99923857
    C     10.82091764      6.28825547     -0.09096006      3.99334525
    C     11.88764460      6.89941719     -0.09094420      4.06559497
    C      1.59476774      3.82204022     -0.09100101      4.06561496
    C      1.59025140      5.05160453     -0.09115338      3.99330484
    C      1.58852312      6.42054687     -0.09128417      3.99923995
    C      1.58542090      7.65686538     -0.09140731      4.00144627
    C      1.58612680      9.02184639     -0.09145364      4.00145521
    C      1.58907782     10.25815754     -0.09142386      3.99923379
    C      1.59460724     11.62703587     -0.09137490      3.99330314
    C      1.60461027     12.85648741     -0.09128319      4.06561242
    C      0.38172980     16.41967200     -0.09119688      3.94034522
    C      0.37895165     14.99702074     -0.09119453      3.94036811
    C      1.60920845     14.28264287     -0.09128181      3.94034002
    C      2.84280898     14.99134161     -0.09124343      3.94040790
    C      2.84555315     16.41411592     -0.09128755      3.94046503
    C      1.61516450     17.12856718     -0.09132620      3.94035904
    C      4.07598297     14.27507410     -0.09114019      4.06560701
    C      5.13638906     13.65276306     -0.09099272      3.99331880
    C      6.31903066     12.96348455     -0.09087249      3.99923603
    C      7.38729366     12.34122129     -0.09076846      4.00145431
    C      8.56826388     11.65694669     -0.09073608      4.00145574
    C      9.63923519     11.03939972     -0.09077552      3.99922989
    C     10.82530158     10.35614012     -0.09082877      3.99332438
    C     11.89272913      9.74603091     -0.09091550      4.06560014
    C      4.08166972     17.12494793     -0.09129197      4.06559009
    C      5.14531362     17.74153397     -0.09132586      3.99335277
    C      6.33062753     18.42586073     -0.09135099      3.99922537
    C      7.40100560     19.04433705     -0.09136980      4.00147116
    C      8.58393787     19.72494050     -0.09137571      4.00145790
    C      9.65630253     20.33994211     -0.09136597      3.99923855
    C     10.84353706     21.02096254     -0.09135511      3.99334492
    C     11.91026310     21.63212403     -0.09133919      4.06559483
    C      1.61738775     18.55474738     -0.09139358      4.06561690
    C      1.61287129     19.78431392     -0.09154820      3.99330373
    C      1.61114223     21.15325316     -0.09167934      3.99923960
    C      1.60803996     22.38957197     -0.09180144      4.00144602
    C      1.60874668     23.75455310     -0.09184855      4.00145542
    C      1.61169691     24.99086634     -0.09181883      3.99923388
    C      1.61722719     26.35974394     -0.09176994      3.99330247
    C      1.62723025     27.58919375     -0.09167820      4.06561281
    C      0.40434981     31.15237900     -0.09159114      3.94034589
    C      0.40157364     29.72972747     -0.09158929      3.94036763
    C      1.63182829     29.01535061     -0.09167684      3.94033993
    C      2.86542863     29.72404919     -0.09163846      3.94040740
    C      2.86817243     31.14682152     -0.09168257      3.94046516
    C      1.63778524     31.86127528     -0.09172092      3.94035897
    C      4.09860105     29.00778151     -0.09153519      4.06560716
    C      5.15900901     28.38546950     -0.09138775      3.99331888
    C      6.34165045     27.69619108     -0.09126746      3.99923614
    C      7.40991489     27.07392798     -0.09116342      4.00145419
    C      8.59088361     26.38965387     -0.09113017      4.00145531
    C      9.66185438     25.77210768     -0.09117043      3.99922996
    C     10.84792161     25.08884619     -0.09122280      3.99332489
    C     11.91534928     24.47873669     -0.09130953      4.06559952
    C      4.10429029     31.85765489     -0.09168692      4.06559092
    C      5.16793407     32.47424053     -0.09172010      3.99335282
    C      6.35324727     33.15856882     -0.09174500      3.99922534
    C      7.42362414     33.77704403     -0.09176310      4.00147160
    C      8.60655968     34.45764786     -0.09176988      4.00145878
    C      9.67892031     35.07264906     -0.09177857      3.99923620
    C     10.86615174     35.75366658     -0.09174014      3.99334849
    C     11.93288856     36.36482919     -0.09166580      4.06559155
    C      1.64000733     33.28745199     -0.09178766      4.06561639
    C      1.63549042     34.51702079     -0.09194241      3.99330442
    C      1.63376215     35.88595954     -0.09207333      3.99923945
    C      1.63065987     37.12227679     -0.09219475      4.00144653
    C      1.63136583     38.48726278     -0.09224273      4.00145664
    C      1.63431684     39.72356990     -0.09223143      3.99923058
    C      1.63984711     41.09244253     -0.09215495      3.99331030
    C      1.64984957     42.32189744     -0.09200467      4.06560218
    C     13.10447306     -5.70076455     -0.09052357      3.94034529
    C     13.10170141     -7.12340776     -0.09063249      3.94036810
    C     14.33194752     -7.83779106     -0.09062643      3.94033961
    C     15.56554579     -7.12909601     -0.09048357      3.94040770
    C     15.56828895     -5.70632682     -0.09053447      3.94046489
    C     14.33790381     -4.99187241     -0.09056688      3.94036109
    C     16.79871686     -7.84536773     -0.09042241      4.06560740
    C     17.85912362     -8.46767837     -0.09026719      3.99331943
    C     19.04176428     -9.15695713     -0.09014588      3.99923637
    C     20.11002783     -9.77921980     -0.09004337      4.00145475
    C     21.29099794    -10.46349438     -0.09001020      4.00145647
    C     22.36196888    -11.08104115     -0.09004908      3.99922996
    C     23.54803641    -11.76430189     -0.09010304      3.99332532
    C     24.61546156    -12.37440995     -0.09019566      4.06559835
    C     16.80440462     -4.99549214     -0.09057028      4.06558917
    C     17.86804721     -4.37890888     -0.09060010      3.99335418
    C     19.05336278     -3.69458147     -0.09062469      3.99922525
    C     20.12373938     -3.07610494     -0.09064377      4.00147204
    C     21.30667143     -2.39550031     -0.09064974      4.00145772
    C     22.37903455     -1.78049873     -0.09063997      3.99923869
    C     23.56627059     -1.09947948     -0.09062910      3.99334567
    C     24.63299934     -0.48831653     -0.09061320      4.06559435
    C     14.34012168     -3.56569423     -0.09067506      4.06561402
    C     14.33560545     -2.33612855     -0.09082259      3.99330583
    C     14.33387708     -0.96718748     -0.09095278      3.99923916
    C     14.33077391      0.26913038     -0.09107545      4.00144713
    C     14.33147981      1.63411135     -0.09112260      4.00145523
    C     14.33443089      2.87042399     -0.09109244      3.99923469
    C     14.33996119      4.23930256     -0.09104419      3.99330263
    C     14.34996401      5.46875220     -0.09095736      4.06561236
    C     13.12709278      9.03194206     -0.09094053      3.94034463
    C     13.12432285      7.60929413     -0.09093804      3.94036777
    C     14.35456690      6.89490744     -0.09093224      3.94033939
    C     15.58816302      7.60360847     -0.09090003      3.94040764
    C     15.59090896      9.02638100     -0.09094410      3.94046562
    C     14.36052255      9.74083295     -0.09097659      3.94035988
    C     16.82133648      6.88733924     -0.09081117      4.06560734
    C     17.88174315      6.26502830     -0.09066186      3.99331919
    C     19.06438368      5.57574963     -0.09054132      3.99923609
    C     20.13264806      4.95348653     -0.09043740      4.00145486
    C     21.31361775      4.26921272     -0.09040419      4.00145540
    C     22.38458800      3.65166689     -0.09044443      3.99922997
    C     23.57065568      2.96840609     -0.09049680      3.99332495
    C     24.63808349      2.35829546     -0.09058354      4.06560009
    C     16.82702372      9.73721420     -0.09096287      4.06558897
    C     17.89066648     10.35379922     -0.09099405      3.99335412
    C     19.07598325     11.03812734     -0.09101886      3.99922521
    C     20.14635923     11.65660141     -0.09103869      4.00147143
    C     21.32929260     12.33720678     -0.09104381      4.00145808
    C     22.40165619     12.95220727     -0.09103491      3.99923852
    C     23.58889114     13.63322806     -0.09102317      3.99334501
    C     24.65561799     14.24438942     -0.09100808      4.06559521
    C     14.36274167     11.16701288     -0.09106684      4.06561544
    C     14.35822445     12.39657907     -0.09121650      3.99330490
    C     14.35649614     13.76552010     -0.09134694      3.99923955
    C     14.35339393     15.00183780     -0.09147033      4.00144585
    C     14.35410070     16.36681526     -0.09151667      4.00145552
    C     14.35705093     17.60313396     -0.09148656      3.99923570
    C     14.36258125     18.97201240     -0.09143907      3.99330158
    C     14.37258401     20.20145713     -0.09135226      4.06561178
    C     13.14971225     23.76464899     -0.09133482      3.94034527
    C     13.14694183     22.34200058     -0.09133271      3.94036779
    C     14.37718707     21.62761319     -0.09132674      3.94034067
    C     15.61078426     22.33631625     -0.09129456      3.94040712
    C     15.61352824     23.75908683     -0.09133841      3.94046519
    C     14.38314369     24.47354117     -0.09137126      3.94036000
    C     16.84395344     21.62004659     -0.09120524      4.06560678
    C     17.90436285     20.99773408     -0.09105588      3.99331986
    C     19.08700396     20.30845674     -0.09093535      3.99923591
    C     20.15526888     19.68619433     -0.09083233      4.00145458
    C     21.33623736     19.00192048     -0.09079917      4.00145543
    C     22.40720834     18.38437418     -0.09083855      3.99923011
    C     23.59327485     17.70111355     -0.09089174      3.99332432
    C     24.66070165     17.09100369     -0.09097851      4.06560062
    C     16.84964298     24.46992044     -0.09135692      4.06558989
    C     17.91328756     25.08650764     -0.09138915      3.99335444
    C     19.09860196     25.77083597     -0.09141386      3.99922493
    C     20.16897747     26.38930978     -0.09143210      4.00147208
    C     21.35191343     27.06991514     -0.09143891      4.00145879
    C     22.42427290     27.68491529     -0.09144758      3.99923652
    C     23.61150552     28.36593399     -0.09140908      3.99334836
    C     24.67824092     28.97709512     -0.09133384      4.06559190
    C     14.38536053     25.89971788     -0.09146182      4.06561478
    C     14.38084435     27.12928517     -0.09161167      3.99330551
    C     14.37911521     28.49822676     -0.09174193      3.99923942
    C     14.37601299     29.73454347     -0.09186378      4.00144691
    C     14.37671970     31.09952807     -0.09191177      4.00145660
    C     14.37967073     32.33583659     -0.09190003      3.99923159
    C     14.38520030     33.70470969     -0.09182414      3.99330988
    C     14.39520355     34.93416259     -0.09167790      4.06560218
    C     25.84982574    -13.08849877     -0.09019242      3.94034610
    C     25.84705605    -14.51114238     -0.09030077      3.94036829
    C     27.07730206    -15.22552536     -0.09029511      3.94033854
    C     28.31089707    -14.51683143     -0.09015202      3.94040732
    C     28.31364247    -13.09406062     -0.09020331      3.94046509
    C     27.08325861    -12.37960589     -0.09023593      3.94036108
    C     29.54406980    -15.23310104     -0.09009132      4.06560793
    C     30.60447787    -15.85541311     -0.08993603      3.99331902
    C     31.78711744    -16.54469125     -0.08981486      3.99923650
    C     32.85538345    -17.16695581     -0.08971277      4.00145419
    C     34.03634923    -17.85122785     -0.08967812      4.00145518
    C     35.10732525    -18.46877821     -0.08970234      3.99923379
    C     36.29340184    -19.15204295     -0.08977867      3.99332108
    C     37.36081504    -19.76213900     -0.08992121      4.06560175
    C     29.54975747    -12.38322728     -0.09023922      4.06558830
    C     30.61340100    -11.76664390     -0.09026804      3.99335447
    C     31.79871636    -11.08231531     -0.09029271      3.99922471
    C     32.86909396    -10.46383952     -0.09031401      4.00147163
    C     34.05202320     -9.78323565     -0.09031773      4.00145600
    C     35.12439165     -9.16823189     -0.09029329      3.99924228
    C     36.31163754     -8.48720708     -0.09030472      3.99333917
    C     37.37836281     -7.87604586     -0.09033957      4.06560214
    C     27.08547611    -10.95342949     -0.09034405      4.06561333
    C     27.08095855     -9.72386392     -0.09049067      3.99330628
    C     27.07923107     -8.35492137     -0.09062080      3.99923934
    C     27.07612793     -7.11860352     -0.09074430      4.00144719
    C     27.07683383     -5.75362255     -0.09079069      4.00145521
    C     27.07978569     -4.51731176     -0.09076056      3.99923434
    C     27.08531438     -3.14843307     -0.09071306      3.99330319
    C     27.09531815     -1.91898169     -0.09062626      4.06561230
    C     25.87244654      1.64420629     -0.09060879      3.94034483
    C     25.86967464      0.22155933     -0.09060671      3.94036749
    C     27.09992109     -0.49282688     -0.09060072      3.94033973
    C     28.33351710      0.21587302     -0.09056857      3.94040728
    C     28.33626142      1.63864653     -0.09061256      3.94046576
    C     27.10587681      2.35309833     -0.09064527      3.94035954
    C     29.56669062     -0.50039494     -0.09047926      4.06560712
    C     30.62709736     -1.12270578     -0.09032975      3.99331897
    C     31.80973702     -1.81198407     -0.09020936      3.99923554
    C     32.87800099     -2.43424790     -0.09010766      4.00145512
    C     34.05897183     -3.11852393     -0.09007306      4.00145442
    C     35.12994264     -3.73606910     -0.09009693      3.99923252
    C     36.31601973     -4.41933334     -0.09017331      3.99332156
    C     37.38343660     -5.02943409     -0.09031006      4.06560303
    C     29.57237862      2.34948014     -0.09063178      4.06558907
    C     30.63602053      2.96606440     -0.09066289      3.99335391
    C     31.82133653      3.65039337     -0.09068790      3.99922445
    C     32.89171226      4.26886678     -0.09070900      4.00147123
    C     34.07464484      4.94947089     -0.09071269      4.00145664
    C     35.14701350      5.56447478     -0.09068737      3.99924186
    C     36.33425712      6.24549988     -0.09069962      3.99333846
    C     37.40098174      6.85666084     -0.09073369      4.06560324
    C     27.10809577      3.77927870     -0.09073584      4.06561554
    C     27.10357854      5.00884477     -0.09088551      3.99330469
    C     27.10185010      6.37778453     -0.09101594      3.99923916
    C     27.09874872      7.61410284     -0.09113936      4.00144694
    C     27.09945296      8.97908422     -0.09118565      4.00145537
    C     27.10240483     10.21539705     -0.09115546      3.99923442
    C     27.10793425     11.58427539     -0.09110716      3.99330281
    C     27.11793810     12.81372510     -0.09102037      4.06561195
    C     25.89506674     16.37691375     -0.09100352      3.94034495
    C     25.89229635     14.95426685     -0.09100112      3.94036735
    C     27.12254065     14.23987972     -0.09099524      3.94034013
    C     28.35613812     14.94858082     -0.09096300      3.94040693
    C     28.35888155     16.37135242     -0.09100711      3.94046598
    C     27.12849623     17.08580648     -0.09103967      3.94035962
    C     29.58930779     14.23231339     -0.09087417      4.06560666
    C     30.64971835     13.61000006     -0.09072469      3.99331999
    C     31.83235767     12.92072204     -0.09060436      3.99923497
    C     32.90062038     12.29846084     -0.09050180      4.00145404
    C     34.08159012     11.61418468     -0.09046798      4.00145571
    C     35.15256638     10.99663424     -0.09049183      3.99923258
    C     36.33863833     10.31337393     -0.09056740      3.99332014
    C     37.40605527      9.70327320     -0.09070402      4.06560364
    C     29.59499740     17.08218568     -0.09102592      4.06558942
    C     30.65864114     17.69877154     -0.09105795      3.99335374
    C     31.84395266     18.38309895     -0.09108193      3.99922437
    C     32.91433158     19.00157593     -0.09110148      4.00147260
    C     34.09726623     19.68217966     -0.09110680      4.00145696
    C     35.16962988     20.29718207     -0.09110084      3.99923889
    C     36.35686863     20.97820221     -0.09108476      3.99334269
    C     37.42360728     21.58936674     -0.09106033      4.06559974
    C     27.13071459     18.51198332     -0.09113075      4.06561508
    C     27.12619752     19.74155166     -0.09128065      3.99330538
    C     27.12446913     21.11049089     -0.09141091      3.99923904
    C     27.12136773     22.34680767     -0.09153179      4.00144745
    C     27.12207292     23.71179391     -0.09157979      4.00145665
    C     27.12502396     24.94810057     -0.09156809      3.99923110
    C     27.13055502     26.31697372     -0.09149308      3.99331025
    C     27.14055731     27.54642842     -0.09134689      4.06560241
