  108
Geometry Step: 0
    C      7.33976000     13.82962000      0.02342000      4.06592471
    C      7.33930000     15.15934000      0.02439000      4.06622924
    C      9.77350000     12.42468000      0.01790000      4.06507304
    C     10.92518000     13.08923000      0.01647000      4.06773667
    C      9.77420000      9.61519000      0.01636000      4.06605688
    C     10.92597000      8.95065000      0.01417000      4.06606908
    C     12.13363000      8.25357000      0.01278000      3.93385784
    C     12.13391000      6.83810000      0.01238000      3.93387434
    C     13.36007000      6.13091000      0.01092000      3.93386810
    C     14.58596000      6.83857000      0.01068000      3.93389449
    C     14.58567000      8.25403000      0.01137000      3.93386669
    C     13.35952000      8.96122000      0.01206000      3.93403144
    C     13.35925000     10.35553000      0.01227000      4.06522362
    C      6.11575000      4.77767000      0.01890000      3.93392201
    C     13.35904000     11.68515000      0.01298000      4.06728934
    C      6.11597000      3.36220000      0.01694000      3.93385123
    C      7.34197000      2.65472000      0.01435000      3.93388897
    C      8.56757000      3.36288000      0.01362000      3.93388136
    C      8.56741000      4.77837000      0.01555000      3.93387997
    C      7.34139000      5.48576000      0.01826000      3.93385792
    C      7.34093000      6.88013000      0.01977000      4.06613324
    C      7.34066000      8.20981000      0.02078000      4.06608817
    C      9.77490000      5.47575000      0.01438000      4.06609581
    C     10.92648000      6.14063000      0.01337000      4.06609794
    C      9.77539000      2.66619000      0.01057000      4.06612733
    C     10.92727000      2.00200000      0.00781000      4.06612103
    C      0.09702000      8.25135000      0.01207000      3.93425870
    C      0.09726000      6.83584000      0.01065000      3.93356116
    C      1.32312000      6.12811000      0.01460000      3.93394972
    C      2.54873000      6.83630000      0.01912000      3.93374626
    C      2.54847000      8.25182000      0.02060000      3.93403803
    C      1.32260000      8.95956000      0.01753000      3.93380566
    C      1.32224000     10.35401000      0.01871000      4.06587018
    C      1.32179000     11.68378000      0.01934000      4.06633203
    C      3.75588000      8.94927000      0.02363000      4.06607638
    C      4.90724000      9.61444000      0.02442000      4.06619812
    C      3.75645000      6.13936000      0.02079000      4.06616737
    C      4.90807000      5.47464000      0.02062000      4.06606841
    C      6.11438000     11.72728000      0.02404000      3.93393292
    C      6.11470000     10.31181000      0.02357000      3.93383416
    C      7.34061000      9.60418000      0.02138000      3.93390488
    C      8.56639000     10.31203000      0.01925000      3.93387139
    C      0.09499000     15.20163000      0.01566000      3.93414393
    C      0.09585000     13.78614000      0.01532000      3.93364825
    C      1.32162000     13.07825000      0.01971000      3.93395304
    C      2.54743000     13.78612000      0.02348000      3.93372537
    C      2.54703000     15.20162000      0.02422000      3.93406886
    C      1.32101000     15.90905000      0.02076000      3.93392432
    C      1.32055000     17.30334100      0.02100000      4.06563064
    C      1.31948000     18.63293100      0.02011000      4.06673108
    C      3.75442000     15.89922000      0.02697000      4.06546006
    C      4.90582000     16.56440900      0.02780000      4.06707291
    C      3.75511000     13.08910000      0.02523000      4.06615687
    C      4.90672000     12.42431000      0.02527000      4.06600987
    C     12.13667000     -5.64242000      0.01148000      3.93359941
    C     12.13728000     -7.05758000      0.02034000      3.93387605
    C     15.79306000      8.95158000      0.01144000      4.06624434
    C     16.94462000      9.61648000      0.01190000      4.06567260
    C     15.79367000      6.14155000      0.00978000      4.06563548
    C     16.94544000      5.47701000      0.00919000      4.06674491
    C     13.36262000     -7.76550000      0.02518000      3.93364038
    C     14.58769000     -7.05713000      0.01901000      3.93383824
    C     14.58784000     -5.64197000      0.01001000      3.93373867
    C     13.36213000     -4.93459000      0.00718000      3.93382076
    C     13.36187000     -3.54055000      0.00195000      4.06623991
    C     13.36163000     -2.21111000      0.00061000      4.06607219
    C     15.79551000     -4.94534000      0.00543000      4.06692035
    C     16.94755900     -4.28162000      0.00295000      4.06482880
    C     15.79496000     -7.75398000      0.02325000      4.06485024
    C     16.94560100     -8.41965000      0.02877000      4.06810310
    C      6.11706000     -2.17220000      0.01031000      3.93385670
    C      6.11735000     -3.58775000      0.01147000      3.93394253
    C      7.34321000     -4.29561000      0.01159000      3.93370888
    C      8.56846000     -3.58671000      0.00859000      3.93387350
    C     12.13490000      1.30504000      0.00560000      3.93386604
    C     12.13492000     -0.11039000      0.00359000      3.93384251
    C     13.36137000     -0.81698000      0.00177000      3.93395441
    C     14.58756000     -0.10991000      0.00192000      3.93385699
    C     14.58699000      1.30552000      0.00406000      3.93380037
    C     13.36081000      2.01265000      0.00581000      3.93393545
    C     13.36053000      3.40697000      0.00781000      4.06612056
    C     13.36031000      4.73659000      0.00953000      4.06619152
    C     15.79433000      2.00297000      0.00464000      4.06684742
    C     16.94603000      2.66749000      0.00565000      4.06505012
    C     15.79516000     -0.80730000      0.00040000      4.06557156
    C     16.94673000     -1.47241000      0.00004000      4.06701082
    C      8.56864000     -2.17116000      0.00745000      3.93381224
    C      7.34257000     -1.46380000      0.00911000      3.93387278
    C      7.34213000     -0.06940000      0.00997000      4.06612514
    C      7.34211000      1.26032000      0.01196000      4.06609591
    C      9.77621000     -1.47367000      0.00524000      4.06608980
    C     10.92757000     -0.80821000      0.00394000      4.06607382
    C      9.77646000     -4.28295000      0.00773000      4.06621590
    C     10.92874000     -4.94626000      0.00858000      4.06607646
    C      0.09825000      1.30111000      0.00219000      3.93426317
    C      0.09786000     -0.11437000      0.00017000      3.93340378
    C      1.32415000     -0.82133000      0.00405000      3.93388768
    C      2.54993000     -0.11348000      0.00854000      3.93358938
    C      2.54981000      1.30201000      0.01085000      3.93398859
    C      1.32376000      2.00943000      0.00834000      3.93369682
    C      1.32339000      3.40389000      0.01094000      4.06576749
    C      1.32329000      4.73366000      0.01292000      4.06638563
    C      3.75719000      1.99954000      0.01465000      4.06608538
    C      4.90854000      2.66477000      0.01662000      4.06612715
    C      3.75758000     -0.81062000      0.01010000      4.06630098
    C      4.90923000     -1.47537000      0.01053000      4.06594437
    C      7.34012000     12.43522000      0.02257000      3.93389002
    C      8.56597000     11.72751000      0.01993000      3.93397168
  108
Geometry Step: 1
    C      7.33978550     13.87965379      0.02340718      4.06105463
    C      7.33943637     15.10951009      0.02431156      4.06974661
    C      9.81695411     12.44979326      0.01786940      4.06444725
    C     10.88327391     13.06513568      0.01656430      4.06350969
    C      9.81751731      9.59019089      0.01627966      4.06449241
    C     10.88264902      8.97564799      0.01424866      4.06368590
    C     12.13669062      8.25181893      0.01277232      3.93593821
    C     12.13697220      6.83986276      0.01238169      3.93591124
    C     13.36008200      6.13444375      0.01091788      3.93583498
    C     14.58290088      6.84038358      0.01066140      3.93602814
    C     14.58260704      8.25232012      0.01141850      3.93629951
    C     13.35947433      8.95768035      0.01200620      3.93581449
    C     13.35927255     10.40567297      0.01235289      4.06064509
    C      6.11881516      4.77590306      0.01890077      3.93606621
    C     13.35915028     11.63636925      0.01310554      4.06989220
    C      6.11901804      3.36396919      0.01694200      3.93590498
    C      7.34197230      2.65824896      0.01435266      3.93588268
    C      8.56451314      3.36464257      0.01362488      3.93552948
    C      8.56435442      4.77660265      0.01555332      3.93558465
    C      7.34138425      5.48223129      0.01825872      3.93565097
    C      7.34092220      6.93015975      0.01980975      4.06429205
    C      7.34067136      8.15978103      0.02074286      4.06404716
    C      9.81822310      5.50076697      0.01434387      4.06453236
    C     10.88315984      6.11560796      0.01340644      4.06374036
    C      9.81873590      2.64118435      0.01046846      4.06460789
    C     10.88392022      2.02701325      0.00791030      4.06379542
    C      0.09960880      8.25038760      0.01197039      3.93496589
    C      0.10108112      6.83851241      0.01063608      3.93376540
    C      1.32318369      6.13157738      0.01462103      3.93375083
    C      2.54563714      6.83806135      0.01912562      3.93516582
    C      2.54544559      8.25005991      0.02061691      3.93567822
    C      1.32256084      8.95594779      0.01754412      3.93397934
    C      1.32223206     10.40405710      0.01872815      4.06319246
    C      1.32179435     11.63377192      0.01930996      4.06436855
    C      3.79920116      8.97428654      0.02367080      4.06462513
    C      4.86391589      9.58940991      0.02439482      4.06362924
    C      3.79980206      6.11434126      0.02079224      4.06479516
    C      4.86471752      5.49966027      0.02063142      4.06342771
    C      6.11743776     11.72551488      0.02404129      3.93601882
    C      6.11776068     10.31357067      0.02356755      3.93593665
    C      7.34059462      9.60770624      0.02138425      3.93585261
    C      8.56334233     10.31380756      0.01925234      3.93554442
    C      0.09781395     15.20046922      0.01564827      3.93488388
    C      0.09951565     13.78865500      0.01527107      3.93379224
    C      1.32167734     13.08172642      0.01971760      3.93377414
    C      2.54434877     13.78788753      0.02348653      3.93517282
    C      2.54398273     15.19986002      0.02428187      3.93574046
    C      1.32095736     15.90546327      0.02082763      3.93413744
    C      1.32057525     17.35341364      0.02091486      4.06002387
    C      1.31964515     18.58330498      0.02004900      4.07014435
    C      3.79780098     15.92426581      0.02695232      4.06463902
    C      4.86334919     16.53983180      0.02769057      4.06300480
    C      3.79844381     13.06408716      0.02524520      4.06470657
    C      4.86338588     12.44932081      0.02527713      4.06333412
    C     12.13962220     -5.64436805      0.01156776      3.93558277
    C     12.13901315     -7.05675999      0.02026506      3.93458953
    C     15.83637505      8.97652864      0.01140325      4.05866677
    C     16.90111717      9.59112663      0.01182788      4.07168336
    C     15.83702441      6.11646457      0.00977924      4.05651825
    C     16.90264578      5.50148541      0.00921243      4.07742916
    C     13.36239040     -7.76305629      0.02488798      3.93648571
    C     14.58456466     -7.05547938      0.01920649      3.93553816
    C     14.58476137     -5.64369385      0.01004487      3.93645000
    C     13.36212824     -4.93813320      0.00719836      3.93521497
    C     13.36185652     -3.49047801      0.00186411      4.06415604
    C     13.36163961     -2.26118418      0.00065600      4.06354328
    C     15.83880235     -4.92043815      0.00535493      4.05855306
    C     16.90316582     -4.30742049      0.00302875      4.07249771
    C     15.83843695     -7.77918510      0.02330722      4.05547146
    C     16.90388375     -8.39579635      0.02838589      4.07894143
    C      6.12009329     -2.17405178      0.01025322      3.93576819
    C      6.11964033     -3.58632209      0.01165364      3.93459031
    C      7.34297295     -4.29218961      0.01167857      3.93653284
    C      8.56543241     -3.58503012      0.00853634      3.93513027
    C     12.13796489      1.30326923      0.00559697      3.93596824
    C     12.13799032     -0.10859963      0.00358896      3.93585991
    C     13.36139745     -0.81347745      0.00176497      3.93593729
    C     14.58446409     -0.10807559      0.00187630      3.93594026
    C     14.58395649      1.30378832      0.00402508      3.93622665
    C     13.36077997      2.00912619      0.00580677      3.93574243
    C     13.36052156      3.45701756      0.00787463      4.06403913
    C     13.36031984      4.68653198      0.00946939      4.06381759
    C     15.83759751      2.02789920      0.00470196      4.05857252
    C     16.90178226      2.64175384      0.00562453      4.07255772
    C     15.83853458     -0.83241781      0.00042328      4.05659793
    C     16.90411988     -1.44803527      0.00009757      4.07763896
    C      8.56554795     -2.17293299      0.00742393      3.93583024
    C      7.34258693     -1.46733005      0.00906856      3.93525673
    C      7.34212083     -0.01937250      0.01003703      4.06433819
    C      7.34212090      1.21029217      0.01189068      4.06386128
    C      9.81952939     -1.44864468      0.00519772      4.06451063
    C     10.88425886     -0.83324652      0.00398542      4.06380065
    C      9.81983114     -4.30793927      0.00777226      4.06377050
    C     10.88533395     -4.92124869      0.00853200      4.06450097
    C      0.10006604      1.30051502      0.00252154      3.93476481
    C      0.10088886     -0.11194823      0.00030648      3.93217563
    C      1.32398904     -0.81823967      0.00414045      3.93466443
    C      2.54681610     -0.11181487      0.00846534      3.93462258
    C      2.54677514      1.30024505      0.01071278      3.93590191
    C      1.32367290      2.00579821      0.00822920      3.93359382
    C      1.32338281      3.45394868      0.01105516      4.06317890
    C      1.32329437      4.68364789      0.01284547      4.06423528
    C      3.80049836      2.02455210      0.01474262      4.06459136
    C      4.86522633      2.63974573      0.01655509      4.06366095
    C      3.80094586     -0.83565347      0.01015867      4.06397943
    C      4.86585789     -1.45033786      0.01053525      4.06410474
    C      7.34010021     12.43169216      0.02261903      3.93581190
    C      8.56289314     11.72571073      0.01991269      3.93561868
  108
Geometry Step: 2
    C      7.33971373     13.89165070      0.02338083      4.06961553
    C      7.33841138     15.10586121      0.02394279      4.05024079
    C      9.82753719     12.45612267      0.01788119      4.05833581
    C     10.87114466     13.06065397      0.01672300      4.07125255
    C      9.82726079      9.58455550      0.01627272      4.06180133
    C     10.87286077      8.98129633      0.01427300      4.06286461
    C     12.13016794      8.25551066      0.01277238      3.93764512
    C     12.13039815      6.83622609      0.01239011      3.93770340
    C     13.36022975      6.12677743      0.01090283      3.93791910
    C     14.58916251      6.83678192      0.01062678      3.93396925
    C     14.58893958      8.25605358      0.01147864      3.93594426
    C     13.35963935      8.96525416      0.01194065      3.93716160
    C     13.35918102     10.41830442      0.01241296      4.07051082
    C      6.11230691      4.77965851      0.01891751      3.93718553
    C     13.35809777     11.63289838      0.01359001      4.05070153
    C      6.11247752      3.36021356      0.01694342      3.93775470
    C      7.34198496      2.65070374      0.01433204      3.93742552
    C      8.57105490      3.36087417      0.01360243      3.93811752
    C      8.57091028      4.78036339      0.01554618      3.93782714
    C      7.34135865      5.48980101      0.01826937      3.93787813
    C      7.34092234      6.94135459      0.01981584      4.06226049
    C      7.34067302      8.14857609      0.02072932      4.06261852
    C      9.82794395      5.50638198      0.01434142      4.06211312
    C     10.87342971      6.10998216      0.01341195      4.06283364
    C      9.82844618      2.63556939      0.01045090      4.06186077
    C     10.87418673      2.03263822      0.00793747      4.06289054
    C      0.08184441      8.26030581      0.01157387      3.93404469
    C      0.08357058      6.83458493      0.01043800      3.94541581
    C      1.32117907      6.12319640      0.01462855      3.94231234
    C      2.55206926      6.83475192      0.01915078      3.93967534
    C      2.55198647      8.25335819      0.02067735      3.93667116
    C      1.32044915      8.96419173      0.01755091      3.94541942
    C      1.32230944     10.41541670      0.01871457      4.06443812
    C      1.32174060     11.62245870      0.01928836      4.06088652
    C      3.80890906      8.97993417      0.02366857      4.06185141
    C      4.85418244      9.58378584      0.02437500      4.06287108
    C      3.80952836      6.10866248      0.02078046      4.06133407
    C      4.85494288      5.50529930      0.02062211      4.06378621
    C      6.11099088     11.72935608      0.02405664      3.93726873
    C      6.11122607     10.30977357      0.02357150      3.93774196
    C      7.34060852      9.60015147      0.02138249      3.93753993
    C      8.56982684     10.30996217      0.01922958      3.93797792
    C      0.08018113     15.21031821      0.01549832      3.93418875
    C      0.08198374     13.78453928      0.01499542      3.94531413
    C      1.31966452     13.07333079      0.01970484      3.94255250
    C      2.55073608     13.78451690      0.02352076      3.93952931
    C      2.55072271     15.20301407      0.02439408      3.93671692
    C      1.31900718     15.91360937      0.02091762      3.94460093
    C      1.32058031     17.36562233      0.02085509      4.07216917
    C      1.31861751     18.57963998      0.01956096      4.04818980
    C      3.80795267     15.93036030      0.02691495      4.05789585
    C      4.85119307     16.53500867      0.02727532      4.07123329
    C      3.80817127     13.05840126      0.02524754      4.06131794
    C      4.85359092     12.45497171      0.02527526      4.06376934
    C     12.13227485     -5.64123407      0.01169102      3.93762956
    C     12.13413011     -7.06339965      0.02005861      3.94229885
    C     15.84659907      8.98229344      0.01136580      4.07422437
    C     16.90064055      9.58919288      0.01146929      4.04795178
    C     15.84842272      6.10992341      0.00979607      4.09288369
    C     16.90651626      5.49959484      0.00939516      4.02162658
    C     13.36425074     -7.77705345      0.02419115      3.93377785
    C     14.59041922     -7.05980850      0.01950262      3.93543500
    C     14.59088968     -5.63974385      0.01009352      3.93425985
    C     13.36210275     -4.93070768      0.00718660      3.93878866
    C     13.36180603     -3.47956689      0.00184254      4.06307801
    C     13.36164268     -2.27212080      0.00069109      4.06332661
    C     15.84841317     -4.91522494      0.00537467      4.07927668
    C     16.90516854     -4.31027980      0.00325235      4.03908553
    C     15.85059800     -7.78613056      0.02323187      4.09474546
    C     16.90775992     -8.39781947      0.02734646      4.02006386
    C      6.11295168     -2.17051559      0.01018496      3.93724269
    C      6.11510532     -3.59244541      0.01218295      3.94221677
    C      7.34477512     -4.30563286      0.01204541      3.93332832
    C      8.57155793     -3.58933474      0.00844287      3.93926632
    C     12.13138362      1.30689187      0.00561115      3.93747901
    C     12.13143311     -0.11219192      0.00359083      3.93786873
    C     13.36155204     -0.82120627      0.00174224      3.93781488
    C     14.59072426     -0.11161257      0.00180135      3.93423942
    C     14.59012816      1.30768171      0.00397705      3.93553579
    C     13.36080798      2.01679550      0.00582023      3.93802972
    C     13.36051090      3.46801137      0.00788691      4.06305607
    C     13.36031976      4.67552482      0.00945791      4.06309643
    C     15.84738787      2.03323068      0.00473181      4.07925283
    C     16.90365883      2.63885695      0.00586433      4.03961984
    C     15.85012391     -0.83906887      0.00046648      4.09263215
    C     16.90786115     -1.44987350      0.00047778      4.02190293
    C      8.57205329     -2.16907410      0.00735481      3.93662848
    C      7.34255577     -1.45999090      0.00899118      3.93883543
    C      7.34208317     -0.00812880      0.01005447      4.06216093
    C      7.34213276      1.19904678      0.01188476      4.06299165
    C      9.82926197     -1.44302806      0.00521133      4.06216599
    C     10.87450416     -0.83889118      0.00400401      4.06242044
    C      9.82953744     -4.31351020      0.00782188      4.06419096
    C     10.87568573     -4.91571072      0.00852779      4.06044052
    C      0.08152723      1.31038034      0.00355765      3.93475748
    C      0.08541729     -0.11826103      0.00084709      3.94954503
    C      1.32360661     -0.83274736      0.00457161      3.93931257
    C      2.55276822     -0.11569383      0.00836960      3.94051786
    C      2.55322898      1.30362817      0.01049006      3.93553362
    C      1.32140594      2.01382406      0.00812041      3.94625384
    C      1.32343511      3.46532022      0.01113674      4.06422070
    C      1.32324871      4.67232674      0.01282083      4.06147788
    C      3.81019741      2.03019965      0.01476043      4.06173790
    C      4.85547191      2.63411029      0.01652893      4.06257917
    C      3.81072413     -0.84132677      0.01022427      4.06362319
    C      4.85611592     -1.44474711      0.01056022      4.06143781
    C      7.34020471     12.43910125      0.02269078      3.93716241
    C      8.56970836     11.72934998      0.01987343      3.93782792
  108
Geometry Step: 3
    C      7.33976205     13.88621460      0.02337461      4.06613860
    C      7.33927088     15.10675111      0.02383241      4.05593094
    C      9.82178305     12.45275805      0.01789636      4.06544996
    C     10.87984063     13.06470874      0.01679207      4.05743351
    C      9.82136540      9.58795141      0.01628911      4.06228608
    C     10.87878588      8.97787949      0.01426513      4.06217022
    C     12.12726717      8.25723709      0.01277243      3.93779383
    C     12.12764456      6.83444127      0.01239287      3.93781758
    C     13.35998772      6.12353036      0.01089680      3.93772850
    C     14.59263703      6.83478731      0.01061362      3.93873838
    C     14.59194433      8.25785137      0.01149691      3.93761978
    C     13.35949560      8.96876220      0.01191991      3.93756891
    C     13.35923106     10.41319019      0.01242128      4.06624165
    C      6.10940640      4.78132996      0.01892357      3.93788734
    C     13.35895298     11.63372411      0.01376262      4.05594398
    C      6.10966216      3.35855056      0.01694358      3.93790592
    C      7.34195073      2.64742625      0.01432323      3.93778376
    C      8.57393410      3.35922175      0.01359252      3.93787347
    C      8.57372121      4.78201552      0.01554278      3.93791732
    C      7.34138964      5.49307269      0.01827328      3.93798713
    C      7.34092519      6.93461745      0.01980929      4.06193503
    C      7.34067656      8.15531823      0.02073185      4.06223299
    C      9.82211628      5.50301617      0.01434921      4.06203209
    C     10.87926627      6.11335154      0.01340577      4.06217684
    C      9.82253018      2.63897562      0.01046736      4.06219476
    C     10.88012025      2.02922173      0.00792601      4.06209032
    C      0.09683853      8.25154189      0.01160431      3.93677388
    C      0.08961271      6.83568762      0.01042382      3.93691622
    C      1.32201292      6.12096847      0.01464044      3.93856845
    C      2.55484028      6.83258366      0.01916014      3.93789097
    C      2.55441764      8.25548845      0.02070083      3.93828006
    C      1.32182462      8.96723461      0.01756519      3.93677343
    C      1.32231787     10.40847217      0.01870256      4.06198474
    C      1.32172923     11.62934219      0.01928462      4.06138415
    C      3.80303346      8.97653707      0.02365863      4.06224330
    C      4.86003127      9.58716395      0.02437181      4.06203363
    C      3.80352601      6.11215170      0.02077460      4.06215762
    C      4.86091276      5.50184996      0.02061522      4.06212282
    C      6.10804962     11.73095407      0.02406313      3.93783350
    C      6.10839700     10.30813650      0.02357272      3.93793271
    C      7.34056562      9.59686386      0.02138097      3.93780098
    C      8.57272969     10.30836764      0.01921955      3.93783316
    C      0.09522455     15.20139973      0.01554334      3.93669740
    C      0.08798089     13.78559813      0.01496640      3.93694098
    C      1.32048806     13.07108332      0.01970942      3.93865954
    C      2.55352550     13.78240689      0.02353620      3.93784643
    C      2.55311648     15.20521182      0.02443192      3.93782073
    C      1.32028304     15.91690080      0.02095749      3.93649088
    C      1.32063346     17.35998342      0.02084943      4.06631786
    C      1.31947801     18.58066254      0.01940535      4.05512749
    C      3.80204877     15.92689827      0.02689905      4.06558503
    C      4.85998981     16.53899476      0.02707671      4.05722097
    C      3.80218847     13.06187705      0.02524554      4.06228508
    C      4.85955460     12.45152638      0.02527333      4.06219405
    C     12.12956814     -5.63997981      0.01173867      3.93904544
    C     12.12893749     -7.06478750      0.01995961      3.93885817
    C     15.84218771      8.97980242      0.01135841      4.06372685
    C     16.90057490      9.58964515      0.01136603      4.05940158
    C     15.84403630      6.11244572      0.00979631      4.06023149
    C     16.89084209      5.50868138      0.00935746      4.06565390
    C     13.36258234     -7.77653193      0.02394422      3.93808680
    C     14.59412710     -7.06213059      0.01960540      3.93981837
    C     14.59390927     -5.63826106      0.01011858      3.93813019
    C     13.36197977     -4.92745486      0.00718299      3.93775080
    C     13.36180628     -3.48617722      0.00184932      4.06198050
    C     13.36164688     -2.26553581      0.00069685      4.06215519
    C     15.84379362     -4.91782553      0.00539430      4.05974218
    C     16.90069210     -4.31193715      0.00327665      4.06528749
    C     15.84627398     -7.78364499      0.02321318      4.06030324
    C     16.89231419     -8.38888619      0.02732957      4.06583778
    C      6.11023275     -2.16925680      0.01016620      3.93902995
    C      6.10982059     -3.59353877      0.01240467      3.93890608
    C      7.34332542     -4.30501164      0.01216213      3.93813706
    C      8.57466985     -3.59112342      0.00841390      3.93884486
    C     12.12852578      1.30868786      0.00561754      3.93784139
    C     12.12870007     -0.11400455      0.00359165      3.93779080
    C     13.36132031     -0.82445789      0.00173299      3.93775036
    C     14.59417949     -0.11368846      0.00177269      3.93875892
    C     14.59324651      1.30940214      0.00396023      3.93817197
    C     13.36076188      2.02001885      0.00582466      3.93786941
    C     13.36051442      3.46146134      0.00787780      4.06201528
    C     13.36032657      4.68209987      0.00946694      4.06215875
    C     15.84276280      2.03064688      0.00472747      4.05985276
    C     16.89921519      2.63723292      0.00589655      4.06527487
    C     15.84571597     -0.83653188      0.00046835      4.06011109
    C     16.89225458     -1.44083328      0.00043873      4.06560206
    C      8.57477198     -2.16760748      0.00732809      3.93790552
    C      7.34255004     -1.45665522      0.00896130      3.93803170
    C      7.34208484     -0.01491842      0.01004484      4.06183423
    C      7.34213819      1.20581057      0.01189913      4.06234498
    C      9.82345443     -1.44640856      0.00522763      4.06196836
    C     10.88032612     -0.83552367      0.00400194      4.06223209
    C      9.82356768     -4.31008418      0.00783483      4.06252685
    C     10.88162430     -4.91913076      0.00853813      4.06200105
    C      0.09664472      1.30126913      0.00359561      3.93833373
    C      0.08756458     -0.11812742      0.00100424      3.93790800
    C      1.32270485     -0.83115365      0.00468328      3.93917286
    C      2.55574424     -0.11800078      0.00834046      3.93880381
    C      2.55554622      1.30553841      0.01040036      3.93823854
    C      1.32267268      2.01694434      0.00806858      3.93673112
    C      1.32344883      3.45832888      0.01115053      4.06179867
    C      1.32323714      4.67923118      0.01282658      4.06157380
    C      3.80433330      2.02679184      0.01474489      4.06215033