nohup: ignoring input
|===============================================================================
|
|  DFTB+ release 22.2
|
|  Copyright (C) 2006 - 2022  DFTB+ developers group
|
|===============================================================================
|
|  When publishing results obtained with DFTB+, please cite the following
|  reference:
|
|  * DFTB+, a software package for efficient approximate density functional
|    theory based atomistic simulations, J. Chem. Phys. 152, 124101 (2020).
|    [doi: 10.1063/1.5143190]
|
|  You should also cite additional publications crediting the parametrization
|  data you use. Please consult the documentation of the SK-files for the
|  references.
|
|===============================================================================

Reading input file 'dftb_in.hsd'
Parser version: 12

--------------------------------------------------------------------------------
Reading SK-files:
/home/common/3ob-3-1_H_mod/C-C.skf
Done.


Processed input in HSD format written to 'dftb_pin.hsd'

Starting initialization...
--------------------------------------------------------------------------------
WARNING!
-> Dipole printed for extended system : value printed is not well defined
Chosen random seed:          773069517
Mode:                        Static calculation
Self consistent charges:     Yes
SCC-tolerance:                 0.100000E-04
Max. scc iterations:                  10000
Shell resolved Hubbard:      No
Spin polarisation:           No
Nr. of up electrons:           216.000000
Nr. of down electrons:         216.000000
Periodic boundaries:         Yes
Electronic solver:           Relatively robust
Mixer:                       Anderson mixer
Mixing parameter:                  0.050000
Maximal SCC-cycles:                   10000
Nr. of chrg. vectors to mix:              4
Electronic temperature:              0.100000E-07 H      0.272114E-06 eV
Initial charges:             Set automatically (system chrg:   0.000E+00)
Included shells:             C:  s, p
K-points and weights:           1:  0.000000  0.000000  0.000000     1.000000

K-points in absolute space:     1:  0.000000  0.000000  0.000000

s-dftd3 library version:     0.7.0
-> damping function:         rational damping
Full 3rd order correction    Yes
Extra options:
                             Mulliken analysis
                             Force calculation
Force type                   original

--------------------------------------------------------------------------------

***  Geometry step: 0

 iSCC Total electronic   Diff electronic      SCC error    
    1    0.00000000E+00    0.00000000E+00    0.14313141E+00
    2   -0.18681387E+03   -0.18681387E+03    0.14013704E+00
    3   -0.18681793E+03   -0.40652668E-02    0.26373599E-02
    4   -0.18691344E+03   -0.95505588E-01    0.17391633E-02
    5   -0.18691344E+03   -0.36551592E-05    0.84895478E-03
    6   -0.18691345E+03   -0.31054439E-05    0.60241348E-03
    7   -0.18691345E+03   -0.50336325E-07    0.20108131E-03
    8   -0.18691345E+03   -0.95812482E-07    0.17844261E-03
    9   -0.18691345E+03   -0.17803927E-08    0.36179106E-04
   10   -0.18691345E+03   -0.11872743E-07    0.31548735E-04
   11   -0.18691345E+03   -0.10444978E-09    0.12305876E-04
   12   -0.18691345E+03   -0.25096369E-09    0.81459594E-05

Total Energy:                     -182.8798002929 H        -4976.4126 eV
Extrapolated to 0K:               -182.8798002929 H        -4976.4126 eV
Total Mermin free energy:         -182.8798002929 H        -4976.4126 eV
Force related energy:             -182.8798002929 H        -4976.4126 eV

Volume:                              0.127033E+06 au^3   0.188244E+05 A^3
Pressure:                           -0.127787E-04 au    -0.375962E+09 Pa
>> Charges saved for restart in charges.bin

total energy  -1.8287980E+02 H       energy change -1.8287980E+02 H
gradient norm  1.3828311E+00 H/a0    max. gradient  1.8671284E-01 H/a0
step length    0.0000000E+00 a0      max. step      0.0000000E+00 a0

--------------------------------------------------------------------------------

***  Geometry step: 1

 iSCC Total electronic   Diff electronic      SCC error    
    1   -0.18691345E+03    0.00000000E+00    0.20215935E-01
    2   -0.18849150E+03   -0.15780507E+01    0.19765996E-01
    3   -0.18849151E+03   -0.10406123E-04    0.45138475E-02
    4   -0.18849166E+03   -0.15162397E-03    0.44272245E-02
    5   -0.18849166E+03   -0.11019117E-05    0.15198431E-02
    6   -0.18849168E+03   -0.23721761E-04    0.13545389E-02
    7   -0.18849168E+03   -0.35192443E-06    0.28861074E-03
    8   -0.18849169E+03   -0.85384590E-06    0.21886970E-03
    9   -0.18849169E+03   -0.38606686E-07    0.63230748E-04
   10   -0.18849169E+03   -0.78482941E-07    0.54362894E-04
   11   -0.18849169E+03   -0.89588070E-09    0.24086058E-04
   12   -0.18849169E+03   -0.38775738E-09    0.12635392E-04
   13   -0.18849169E+03   -0.43797854E-09    0.76284105E-05

Total Energy:                     -183.3852640490 H        -4990.1669 eV
Extrapolated to 0K:               -183.3852640490 H        -4990.1669 eV
Total Mermin free energy:         -183.3852640490 H        -4990.1669 eV
Force related energy:             -183.3852640490 H        -4990.1669 eV

Volume:                              0.127528E+06 au^3   0.188978E+05 A^3
Pressure:                           -0.842232E-05 au    -0.247793E+09 Pa
>> Charges saved for restart in charges.bin

total energy  -1.8338526E+02 H       energy change -5.0546376E-01 H
gradient norm  3.8986698E-01 H/a0    max. gradient  2.3109829E-01 H/a0
step length    7.0178457E-01 a0      max. step      9.4756472E-02 a0

--------------------------------------------------------------------------------

***  Geometry step: 2

 iSCC Total electronic   Diff electronic      SCC error    
    1   -0.18849169E+03    0.00000000E+00    0.10225451E+00
    2   -0.18910275E+03   -0.61106879E+00    0.10022545E+00
    3   -0.18910290E+03   -0.14035895E-03    0.21444544E-01
    4   -0.18910469E+03   -0.17906260E-02    0.20916317E-01
    5   -0.18910471E+03   -0.28323794E-04    0.66252673E-02
    6   -0.18910511E+03   -0.39413513E-03    0.58525809E-02
    7   -0.18910512E+03   -0.10191592E-04    0.14317840E-02
    8   -0.18910514E+03   -0.22718481E-04    0.11480546E-02
    9   -0.18910514E+03   -0.76911797E-06    0.35440877E-03
   10   -0.18910514E+03   -0.14747087E-05    0.24698965E-03
   11   -0.18910514E+03   -0.82783714E-07    0.14287487E-03
   12   -0.18910514E+03   -0.44623761E-07    0.58177512E-04
   13   -0.18910514E+03   -0.65516588E-08    0.37644981E-04
   14   -0.18910514E+03    0.20531843E-09    0.12566228E-04
   15   -0.18910514E+03   -0.19433344E-08    0.10971375E-04
   16   -0.18910514E+03   -0.40500936E-10    0.78560853E-05

Total Energy:                     -183.3067522366 H        -4988.0305 eV
Extrapolated to 0K:               -183.3067522366 H        -4988.0305 eV
Total Mermin free energy:         -183.3067522366 H        -4988.0305 eV
Force related energy:             -183.3067522366 H        -4988.0305 eV

Volume:                              0.126088E+06 au^3   0.186843E+05 A^3
Pressure:                            0.238880E-05 au     0.702810E+08 Pa
>> Charges saved for restart in charges.bin

total energy  -1.8330675E+02 H       energy change  7.8511812E-02 H
gradient norm  1.2244989E+00 H/a0    max. gradient  7.6080568E-01 H/a0
step length    3.5061931E-01 a0      max. step      1.9217651E-01 a0

--------------------------------------------------------------------------------

***  Geometry step: 3

 iSCC Total electronic   Diff electronic      SCC error    
    1   -0.18910514E+03    0.00000000E+00    0.82454790E-01
    2   -0.18877657E+03    0.32857245E+00    0.80753275E-01
    3   -0.18877666E+03   -0.85283561E-04    0.15245277E-01
    4   -0.18877771E+03   -0.10496718E-02    0.14979173E-01
    5   -0.18877771E+03   -0.69572893E-05    0.41896741E-02
    6   -0.18877796E+03   -0.24504882E-03    0.36995605E-02
    7   -0.18877796E+03   -0.40655551E-05    0.94857141E-03
    8   -0.18877797E+03   -0.91856441E-05    0.84831340E-03
    9   -0.18877797E+03   -0.10845559E-06    0.52541023E-03
   10   -0.18877797E+03   -0.40053126E-06    0.19946624E-03
   11   -0.18877797E+03   -0.21321452E-06    0.17244500E-03
   12   -0.18877797E+03   -0.14651107E-08    0.81892996E-04
   13   -0.18877797E+03   -0.14050869E-07    0.63565394E-04
   14   -0.18877797E+03   -0.35342396E-08    0.52083793E-04
   15   -0.18877797E+03   -0.21377389E-08    0.50103273E-04
   16   -0.18877797E+03    0.33693937E-09    0.46710937E-04
   17   -0.18877797E+03   -0.23285907E-09    0.28298112E-04
   18   -0.18877797E+03   -0.69590556E-09    0.20691451E-04
   19   -0.18877797E+03   -0.17328716E-09    0.18235240E-04
   20   -0.18877797E+03   -0.86401997E-11    0.75326756E-05

Total Energy:                     -183.4158291250 H        -4990.9986 eV
Extrapolated to 0K:               -183.4158291250 H        -4990.9986 eV
Total Mermin free energy:         -183.4158291250 H        -4990.9986 eV
Force related energy:             -183.4158291250 H        -4990.9986 eV

Volume:                              0.126919E+06 au^3   0.188074E+05 A^3
Pressure:                           -0.493371E-05 au    -0.145155E+09 Pa
>> Charges saved for restart in charges.bin

total energy  -1.8341583E+02 H       energy change -1.0907689E-01 H
gradient norm  1.7643569E-01 H/a0    max. gradient  9.5099916E-02 H/a0
step length    2.3222322E-01 a0      max. step      1.4209499E-01 a0

--------------------------------------------------------------------------------

***  Geometry step: 4

 iSCC Total electronic   Diff electronic      SCC error    
    1   -0.18877797E+03    0.00000000E+00    0.27482416E-01
    2   -0.18866281E+03    0.11516038E+00    0.26962446E-01
    3   -0.18866282E+03   -0.85382728E-05    0.54718897E-02
    4   -0.18866292E+03   -0.10384200E-03    0.53581764E-02
    5   -0.18866293E+03   -0.14978034E-05    0.14042756E-02
    6   -0.18866296E+03   -0.32848941E-04    0.12739802E-02
    7   -0.18866296E+03   -0.43578271E-06    0.37513464E-03
    8   -0.18866296E+03   -0.91562976E-06    0.29462177E-03
    9   -0.18866296E+03   -0.56968048E-07    0.71688803E-04
   10   -0.18866296E+03   -0.10379762E-06    0.54937877E-04
   11   -0.18866296E+03   -0.14931345E-08    0.19489538E-04
   12   -0.18866296E+03   -0.92143182E-09    0.96993291E-05

Total Energy:                     -183.4113986918 H        -4990.8781 eV
Extrapolated to 0K:               -183.4113986918 H        -4990.8781 eV
Total Mermin free energy:         -183.4113986918 H        -4990.8781 eV
Force related energy:             -183.4113986918 H        -4990.8781 eV

Volume:                              0.127057E+06 au^3   0.188279E+05 A^3
Pressure:                           -0.619875E-05 au    -0.182373E+09 Pa
>> Charges saved for restart in charges.bin

total energy  -1.8341140E+02 H       energy change  4.4304332E-03 H
gradient norm  2.3695965E-01 H/a0    max. gradient  1.8244112E-01 H/a0
step length    1.1969780E-01 a0      max. step      7.5757455E-02 a0

--------------------------------------------------------------------------------

***  Geometry step: 5

 iSCC Total electronic   Diff electronic      SCC error    
    1   -0.18866296E+03    0.00000000E+00    0.15845958E-01
    2   -0.18870843E+03   -0.45470448E-01    0.15552657E-01
    3   -0.18870843E+03   -0.39074662E-05    0.33824771E-02
    4   -0.18870848E+03   -0.50629594E-04    0.33074014E-02
    5   -0.18870849E+03   -0.80120896E-06    0.10262831E-02
    6   -0.18870850E+03   -0.14829449E-04    0.92840048E-03
    7   -0.18870850E+03   -0.16920777E-06    0.23963473E-03
    8   -0.18870850E+03   -0.35281820E-06    0.18961993E-03
    9   -0.18870850E+03   -0.25564276E-07    0.71018062E-04
   10   -0.18870850E+03   -0.48560452E-07    0.46035461E-04
   11   -0.18870850E+03   -0.14879049E-08    0.13606850E-04
   12   -0.18870850E+03   -0.53211124E-09    0.59076307E-05

Total Energy:                     -183.4201625880 H        -4991.1166 eV
Extrapolated to 0K:               -183.4201625880 H        -4991.1166 eV
Total Mermin free energy:         -183.4201625880 H        -4991.1166 eV
Force related energy:             -183.4201625880 H        -4991.1166 eV

Volume:                              0.126888E+06 au^3   0.188029E+05 A^3
Pressure:                           -0.540145E-05 au    -0.158916E+09 Pa
>> Charges saved for restart in charges.bin

total energy  -1.8342016E+02 H       energy change -8.7638961E-03 H
gradient norm  5.6802910E-02 H/a0    max. gradient  2.6478499E-02 H/a0
step length    7.6399081E-02 a0      max. step      5.8670231E-02 a0

--------------------------------------------------------------------------------

***  Geometry step: 6

 iSCC Total electronic   Diff electronic      SCC error    
    1   -0.18870850E+03    0.00000000E+00    0.60391689E-02
    2   -0.18876871E+03   -0.60211699E-01    0.59126836E-02
    3   -0.18876871E+03   -0.34247535E-06    0.12372755E-02
    4   -0.18876872E+03   -0.45511856E-05    0.12058409E-02
    5   -0.18876872E+03   -0.80000774E-07    0.36065346E-03
    6   -0.18876872E+03   -0.14438013E-05    0.32307699E-03
    7   -0.18876872E+03   -0.23843057E-07    0.89482401E-04
    8   -0.18876872E+03   -0.56272654E-07    0.71249592E-04
    9   -0.18876872E+03   -0.22783695E-08    0.21332731E-04
   10   -0.18876872E+03   -0.33696779E-08    0.14307211E-04
   11   -0.18876872E+03   -0.14424018E-09    0.55177265E-05

Total Energy:                     -183.4200097489 H        -4991.1124 eV
Extrapolated to 0K:               -183.4200097489 H        -4991.1124 eV
Total Mermin free energy:         -183.4200097489 H        -4991.1124 eV
Force related energy:             -183.4200097489 H        -4991.1124 eV

Volume:                              0.126787E+06 au^3   0.187879E+05 A^3
Pressure:                           -0.459607E-05 au    -0.135221E+09 Pa
>> Charges saved for restart in charges.bin

total energy  -1.8342001E+02 H       energy change  1.5283901E-04 H
gradient norm  6.9878848E-02 H/a0    max. gradient  2.3586433E-02 H/a0
step length    5.4583767E-02 a0      max. step      1.7532502E-02 a0

--------------------------------------------------------------------------------

***  Geometry step: 7

 iSCC Total electronic   Diff electronic      SCC error    
    1   -0.18876872E+03    0.00000000E+00    0.26019240E-02
    2   -0.18875558E+03    0.13138839E-01    0.25468185E-02
    3   -0.18875558E+03   -0.67195856E-07    0.61258654E-03
    4   -0.18875558E+03   -0.94868764E-06    0.59843555E-03
    5   -0.18875558E+03   -0.13498777E-07    0.14890922E-03
    6   -0.18875558E+03   -0.26188133E-06    0.13318025E-03
    7   -0.18875558E+03   -0.47764388E-08    0.43071261E-04
    8   -0.18875558E+03   -0.10593254E-07    0.34111300E-04
    9   -0.18875558E+03   -0.54276938E-09    0.11441646E-04
   10   -0.18875558E+03   -0.70571105E-09    0.70457640E-05

Total Energy:                     -183.4211233932 H        -4991.1427 eV
Extrapolated to 0K:               -183.4211233932 H        -4991.1427 eV
Total Mermin free energy:         -183.4211233932 H        -4991.1427 eV
Force related energy:             -183.4211233932 H        -4991.1427 eV

Volume:                              0.126798E+06 au^3   0.187896E+05 A^3
Pressure:                           -0.473753E-05 au    -0.139383E+09 Pa
>> Charges saved for restart in charges.bin

total energy  -1.8342112E+02 H       energy change -1.1136443E-03 H
gradient norm  1.4636902E-02 H/a0    max. gradient  4.4644297E-03 H/a0
step length    2.9764688E-02 a0      max. step      9.9636481E-03 a0

--------------------------------------------------------------------------------

***  Geometry step: 8

 iSCC Total electronic   Diff electronic      SCC error    
    1   -0.18875558E+03    0.00000000E+00    0.96197564E-03
    2   -0.18875724E+03   -0.16538323E-02    0.94281137E-03
    3   -0.18875724E+03   -0.10965124E-07    0.19807274E-03
    4   -0.18875724E+03   -0.13327258E-06    0.19386203E-03
    5   -0.18875724E+03   -0.19967672E-08    0.53009783E-04
    6   -0.18875724E+03   -0.40052413E-07    0.48808350E-04
    7   -0.18875724E+03   -0.67103656E-09    0.18491467E-04
    8   -0.18875724E+03   -0.15787975E-08    0.14790773E-04
    9   -0.18875724E+03   -0.48260063E-10    0.26421383E-05

Total Energy:                     -183.4213456628 H        -4991.1488 eV
Extrapolated to 0K:               -183.4213456628 H        -4991.1488 eV
Total Mermin free energy:         -183.4213456628 H        -4991.1488 eV
Force related energy:             -183.4213456628 H        -4991.1488 eV

Volume:                              0.126771E+06 au^3   0.187855E+05 A^3
Pressure:                           -0.461402E-05 au    -0.135749E+09 Pa
>> Charges saved for restart in charges.bin

total energy  -1.8342135E+02 H       energy change -2.2226961E-04 H
gradient norm  1.4447501E-02 H/a0    max. gradient  3.3019348E-03 H/a0
step length    1.8538967E-02 a0      max. step      6.0215962E-03 a0

--------------------------------------------------------------------------------

***  Geometry step: 9

 iSCC Total electronic   Diff electronic      SCC error    
    1   -0.18875724E+03    0.00000000E+00    0.33227588E-02
    2   -0.18879240E+03   -0.35159680E-01    0.32544515E-02
    3   -0.18879240E+03   -0.16559949E-06    0.67315711E-03
    4   -0.18879240E+03   -0.22470460E-05    0.64970125E-03
    5   -0.18879240E+03   -0.13484907E-07    0.19282741E-03
    6   -0.18879240E+03   -0.29489456E-06    0.17067016E-03
    7   -0.18879240E+03   -0.59525576E-08    0.56572051E-04
    8   -0.18879240E+03   -0.13488489E-07    0.46575121E-04
    9   -0.18879240E+03   -0.35853986E-09    0.12758434E-04
   10   -0.18879240E+03   -0.63846528E-09    0.80592364E-05

Total Energy:                     -183.4221438252 H        -4991.1705 eV
Extrapolated to 0K:               -183.4221438252 H        -4991.1705 eV
Total Mermin free energy:         -183.4221438252 H        -4991.1705 eV
Force related energy:             -183.4221438252 H        -4991.1705 eV

Volume:                              0.126582E+06 au^3   0.187576E+05 A^3
Pressure:                           -0.361160E-05 au    -0.106257E+09 Pa
>> Charges saved for restart in charges.bin

total energy  -1.8342214E+02 H       energy change -7.9816240E-04 H
gradient norm  2.9291367E-02 H/a0    max. gradient  9.2147781E-03 H/a0
step length    1.0404066E-01 a0      max. step      3.6547949E-02 a0

--------------------------------------------------------------------------------

***  Geometry step: 10

 iSCC Total electronic   Diff electronic      SCC error    
    1   -0.18879240E+03    0.00000000E+00    0.14468736E-02
    2   -0.18883994E+03   -0.47545432E-01    0.14188543E-02
    3   -0.18883994E+03   -0.64807637E-07    0.43004980E-03
    4   -0.18883994E+03   -0.81763667E-06    0.41625745E-03
    5   -0.18883994E+03   -0.32459013E-08    0.11059291E-03
    6   -0.18883994E+03   -0.98272125E-07    0.99425407E-04
    7   -0.18883994E+03   -0.19570621E-08    0.27372498E-04
    8   -0.18883994E+03   -0.45225477E-08    0.22324648E-04
    9   -0.18883994E+03   -0.98452801E-10    0.41651781E-05

Total Energy:                     -183.4226291159 H        -4991.1837 eV
Extrapolated to 0K:               -183.4226291159 H        -4991.1837 eV
Total Mermin free energy:         -183.4226291159 H        -4991.1837 eV
Force related energy:             -183.4226291159 H        -4991.1837 eV

Volume:                              0.126419E+06 au^3   0.187334E+05 A^3
Pressure:                           -0.261929E-05 au    -0.770622E+08 Pa
>> Charges saved for restart in charges.bin

total energy  -1.8342263E+02 H       energy change -4.8529067E-04 H
gradient norm  2.3515594E-02 H/a0    max. gradient  6.4192528E-03 H/a0
step length    8.9550928E-02 a0      max. step      3.1252746E-02 a0

--------------------------------------------------------------------------------

***  Geometry step: 11

 iSCC Total electronic   Diff electronic      SCC error    
    1   -0.18883994E+03    0.00000000E+00    0.55920735E-03
    2   -0.18886968E+03   -0.29735426E-01    0.54850792E-03
    3   -0.18886968E+03   -0.17345769E-07    0.18897589E-03
    4   -0.18886968E+03   -0.26960254E-06    0.18531019E-03
    5   -0.18886968E+03   -0.10120118E-08    0.37385707E-04
    6   -0.18886968E+03   -0.21650010E-07    0.33205495E-04
    7   -0.18886968E+03   -0.50766857E-09    0.13464912E-04
    8   -0.18886968E+03   -0.99888098E-09    0.98486975E-05

Total Energy:                     -183.4229358011 H        -4991.1920 eV
Extrapolated to 0K:               -183.4229358011 H        -4991.1920 eV
Total Mermin free energy:         -183.4229358011 H        -4991.1920 eV
Force related energy:             -183.4229358011 H        -4991.1920 eV

Volume:                              0.126306E+06 au^3   0.187167E+05 A^3
Pressure:                           -0.195607E-05 au    -0.575497E+08 Pa
>> Charges saved for restart in charges.bin

total energy  -1.8342294E+02 H       energy change -3.0668515E-04 H
gradient norm  1.3823678E-02 H/a0    max. gradient  2.7989543E-03 H/a0
step length    6.7888667E-02 a0      max. step      1.9568949E-02 a0

--------------------------------------------------------------------------------

***  Geometry step: 12

 iSCC Total electronic   Diff electronic      SCC error    
    1   -0.18886968E+03    0.00000000E+00    0.11331977E-02
    2   -0.18889172E+03   -0.22043084E-01    0.11089433E-02
    3   -0.18889172E+03   -0.25864580E-07    0.25606991E-03
    4   -0.18889172E+03   -0.31265236E-06    0.24840596E-03
    5   -0.18889172E+03   -0.55888449E-08    0.98375660E-04
    6   -0.18889172E+03   -0.10872796E-06    0.87772246E-04
    7   -0.18889172E+03   -0.12014709E-08    0.33627923E-04
    8   -0.18889172E+03   -0.28942111E-08    0.27045065E-04
    9   -0.18889172E+03   -0.13659474E-09    0.41318809E-05

Total Energy:                     -183.4231873848 H        -4991.1989 eV
Extrapolated to 0K:               -183.4231873848 H        -4991.1989 eV
Total Mermin free energy:         -183.4231873848 H        -4991.1989 eV
Force related energy:             -183.4231873848 H        -4991.1989 eV

Volume:                              0.126236E+06 au^3   0.187062E+05 A^3
Pressure:                           -0.151822E-05 au    -0.446674E+08 Pa
>> Charges saved for restart in charges.bin

total energy  -1.8342319E+02 H       energy change -2.5158372E-04 H
gradient norm  1.7365243E-02 H/a0    max. gradient  5.7490821E-03 H/a0
step length    5.4474656E-02 a0      max. step      1.1592994E-02 a0

--------------------------------------------------------------------------------

***  Geometry step: 13

 iSCC Total electronic   Diff electronic      SCC error    
    1   -0.18889172E+03    0.00000000E+00    0.13658970E-02
    2   -0.18891460E+03   -0.22879943E-01    0.13462290E-02
    3   -0.18891460E+03   -0.93657917E-07    0.67664387E-03
    4   -0.18891461E+03   -0.12093618E-05    0.65857663E-03
    5   -0.18891461E+03   -0.46183573E-08    0.10498394E-03
    6   -0.18891461E+03   -0.12329016E-06    0.96035403E-04
    7   -0.18891461E+03   -0.12717862E-08    0.33976127E-04
    8   -0.18891461E+03   -0.31263028E-08    0.26357838E-04
    9   -0.18891461E+03   -0.65512040E-10    0.55641341E-05

Total Energy:                     -183.4235153492 H        -4991.2078 eV
Extrapolated to 0K:               -183.4235153492 H        -4991.2078 eV
Total Mermin free energy:         -183.4235153492 H        -4991.2078 eV
Force related energy:             -183.4235153492 H        -4991.2078 eV

Volume:                              0.126165E+06 au^3   0.186958E+05 A^3
Pressure:                           -0.107883E-05 au    -0.317402E+08 Pa
>> Charges saved for restart in charges.bin

total energy  -1.8342352E+02 H       energy change -3.2796442E-04 H
gradient norm  2.3517008E-02 H/a0    max. gradient  7.7731056E-03 H/a0
step length    7.7205312E-02 a0      max. step      1.0623963E-02 a0

--------------------------------------------------------------------------------

***  Geometry step: 14

 iSCC Total electronic   Diff electronic      SCC error    
    1   -0.18891461E+03    0.00000000E+00    0.87546799E-03
    2   -0.18892071E+03   -0.61043014E-02    0.84219624E-03
    3   -0.18892071E+03   -0.11616802E-06    0.39282842E-03
    4   -0.18892071E+03   -0.14493314E-05    0.38429039E-03
    5   -0.18892071E+03   -0.14501040E-08    0.80346477E-04
    6   -0.18892071E+03   -0.44291369E-07    0.71753903E-04
    7   -0.18892071E+03   -0.54060934E-09    0.24314740E-04
    8   -0.18892071E+03   -0.13049544E-08    0.20158882E-04
    9   -0.18892071E+03   -0.54626526E-10    0.32604041E-05

Total Energy:                     -183.4238127667 H        -4991.2159 eV
Extrapolated to 0K:               -183.4238127667 H        -4991.2159 eV
Total Mermin free energy:         -183.4238127667 H        -4991.2159 eV
Force related energy:             -183.4238127667 H        -4991.2159 eV

Volume:                              0.126124E+06 au^3   0.186896E+05 A^3
Pressure:                           -0.868660E-06 au    -0.255568E+08 Pa
>> Charges saved for restart in charges.bin

total energy  -1.8342381E+02 H       energy change -2.9741754E-04 H
gradient norm  1.8633550E-02 H/a0    max. gradient  5.2767987E-03 H/a0
step length    7.3937968E-02 a0      max. step      1.1756906E-02 a0

--------------------------------------------------------------------------------

***  Geometry step: 15

 iSCC Total electronic   Diff electronic      SCC error    
    1   -0.18892071E+03    0.00000000E+00    0.90183381E-03
    2   -0.18892120E+03   -0.49273076E-03    0.88164776E-03
    3   -0.18892120E+03   -0.65560386E-07    0.30578775E-03
    4   -0.18892120E+03   -0.82257904E-06    0.30007287E-03
    5   -0.18892120E+03   -0.17502373E-08    0.76116222E-04
    6   -0.18892120E+03   -0.61125718E-07    0.69462257E-04
    7   -0.18892120E+03   -0.48646598E-09    0.19386280E-04
    8   -0.18892120E+03   -0.10447252E-08    0.15183754E-04
    9   -0.18892120E+03   -0.89357854E-10    0.52672169E-05

Total Energy:                     -183.4239821833 H        -4991.2205 eV
Extrapolated to 0K:               -183.4239821833 H        -4991.2205 eV
Total Mermin free energy:         -183.4239821833 H        -4991.2205 eV
Force related energy:             -183.4239821833 H        -4991.2205 eV

Volume:                              0.126103E+06 au^3   0.186866E+05 A^3
Pressure:                           -0.781938E-06 au    -0.230054E+08 Pa
>> Charges saved for restart in charges.bin

total energy  -1.8342398E+02 H       energy change -1.6941655E-04 H
gradient norm  1.2203694E-02 H/a0    max. gradient  2.6277481E-03 H/a0
step length    5.2322066E-02 a0      max. step      9.1755254E-03 a0

--------------------------------------------------------------------------------

***  Geometry step: 16

 iSCC Total electronic   Diff electronic      SCC error    
    1   -0.18892120E+03    0.00000000E+00    0.92834396E-03
    2   -0.18892307E+03   -0.18620877E-02    0.90738797E-03
    3   -0.18892307E+03   -0.26951511E-07    0.24070493E-03
    4   -0.18892307E+03   -0.38954022E-06    0.23423084E-03
    5   -0.18892307E+03   -0.29214391E-08    0.85586810E-04
    6   -0.18892307E+03   -0.59097516E-07    0.76521559E-04
    7   -0.18892307E+03   -0.12219914E-08    0.23803566E-04
    8   -0.18892307E+03   -0.26899443E-08    0.19262715E-04
    9   -0.18892307E+03   -0.11397105E-09    0.33240965E-05

Total Energy:                     -183.4240832773 H        -4991.2233 eV
Extrapolated to 0K:               -183.4240832773 H        -4991.2233 eV
Total Mermin free energy:         -183.4240832773 H        -4991.2233 eV
Force related energy:             -183.4240832773 H        -4991.2233 eV

Volume:                              0.126090E+06 au^3   0.186847E+05 A^3
Pressure:                           -0.715731E-06 au    -0.210575E+08 Pa
>> Charges saved for restart in charges.bin

total energy  -1.8342408E+02 H       energy change -1.0109398E-04 H
gradient norm  1.2226007E-02 H/a0    max. gradient  3.0754145E-03 H/a0
step length    2.9458281E-02 a0      max. step      5.5915995E-03 a0

--------------------------------------------------------------------------------

***  Geometry step: 17

 iSCC Total electronic   Diff electronic      SCC error    
    1   -0.18892307E+03    0.00000000E+00    0.67637183E-03
    2   -0.18892521E+03   -0.21453101E-02    0.66462034E-03
    3   -0.18892521E+03   -0.70493513E-08    0.17370149E-03
    4   -0.18892521E+03   -0.12320226E-06    0.16841769E-03
    5   -0.18892521E+03   -0.57573857E-09    0.29723805E-04
    6   -0.18892521E+03   -0.10421417E-07    0.27024226E-04
    7   -0.18892521E+03   -0.30991032E-09    0.14623777E-04
    8   -0.18892521E+03   -0.56513727E-09    0.95368444E-05

Total Energy:                     -183.4241776414 H        -4991.2258 eV
Extrapolated to 0K:               -183.4241776414 H        -4991.2258 eV
Total Mermin free energy:         -183.4241776414 H        -4991.2258 eV
Force related energy:             -183.4241776414 H        -4991.2258 eV

Volume:                              0.126079E+06 au^3   0.186830E+05 A^3
Pressure:                           -0.654818E-06 au    -0.192654E+08 Pa
>> Charges saved for restart in charges.bin

total energy  -1.8342418E+02 H       energy change -9.4364169E-05 H
gradient norm  1.0587899E-02 H/a0    max. gradient  2.9559008E-03 H/a0
step length    1.8923448E-02 a0      max. step      4.1153862E-03 a0

--------------------------------------------------------------------------------

***  Geometry step: 18

 iSCC Total electronic   Diff electronic      SCC error    
    1   -0.18892521E+03    0.00000000E+00    0.53429713E-03
    2   -0.18893670E+03   -0.11487267E-01    0.52032631E-03
    3   -0.18893670E+03   -0.19533161E-07    0.18782959E-03
    4   -0.18893670E+03   -0.28653184E-06    0.18420909E-03
    5   -0.18893670E+03   -0.12168186E-08    0.57806489E-04
    6   -0.18893670E+03   -0.24617862E-07    0.52254219E-04
    7   -0.18893670E+03   -0.68536110E-09    0.18344523E-04
    8   -0.18893670E+03   -0.14533725E-08    0.15073069E-04
    9   -0.18893670E+03   -0.63437255E-10    0.21389260E-05

Total Energy:                     -183.4243119111 H        -4991.2295 eV
Extrapolated to 0K:               -183.4243119111 H        -4991.2295 eV
Total Mermin free energy:         -183.4243119111 H        -4991.2295 eV
Force related energy:             -183.4243119111 H        -4991.2295 eV

Volume:                              0.126040E+06 au^3   0.186771E+05 A^3
Pressure:                           -0.409580E-06 au    -0.120502E+08 Pa
>> Charges saved for restart in charges.bin

total energy  -1.8342431E+02 H       energy change -1.3426965E-04 H
gradient norm  7.2326356E-03 H/a0    max. gradient  1.5421748E-03 H/a0
step length    4.9399192E-02 a0      max. step      1.0652928E-02 a0

--------------------------------------------------------------------------------

***  Geometry step: 19

 iSCC Total electronic   Diff electronic      SCC error    
    1   -0.18893670E+03    0.00000000E+00    0.29791993E-03
    2   -0.18894415E+03   -0.74517061E-02    0.29028481E-03
    3   -0.18894415E+03   -0.44339288E-08    0.84094415E-04
    4   -0.18894415E+03   -0.66257115E-07    0.82132643E-04
    5   -0.18894415E+03   -0.26329872E-09    0.20638372E-04
    6   -0.18894415E+03   -0.57565330E-08    0.18556132E-04
    7   -0.18894415E+03   -0.17030288E-09    0.65286700E-05

Total Energy:                     -183.4243582993 H        -4991.2307 eV
Extrapolated to 0K:               -183.4243582993 H        -4991.2307 eV
Total Mermin free energy:         -183.4243582993 H        -4991.2307 eV
Force related energy:             -183.4243582993 H        -4991.2307 eV

Volume:                              0.126016E+06 au^3   0.186737E+05 A^3
Pressure:                           -0.260647E-06 au    -0.766848E+07 Pa
>> Charges saved for restart in charges.bin

total energy  -1.8342436E+02 H       energy change -4.6388250E-05 H
gradient norm  7.8251057E-03 H/a0    max. gradient  1.3951605E-03 H/a0
step length    3.0494959E-02 a0      max. step      6.2218970E-03 a0

--------------------------------------------------------------------------------

***  Geometry step: 20

 iSCC Total electronic   Diff electronic      SCC error    
    1   -0.18894415E+03    0.00000000E+00    0.46590737E-03
    2   -0.18895029E+03   -0.61392961E-02    0.45587721E-03
    3   -0.18895029E+03   -0.87353840E-08    0.99381494E-04
    4   -0.18895029E+03   -0.14489444E-06    0.97434208E-04
    5   -0.18895029E+03   -0.49186610E-09    0.34972227E-04
    6   -0.18895029E+03   -0.10456858E-07    0.31084302E-04
    7   -0.18895029E+03   -0.18351898E-09    0.12509384E-04
    8   -0.18895029E+03   -0.29010039E-09    0.96735219E-05

Total Energy:                     -183.4244026143 H        -4991.2319 eV
Extrapolated to 0K:               -183.4244026143 H        -4991.2319 eV
Total Mermin free energy:         -183.4244026143 H        -4991.2319 eV
Force related energy:             -183.4244026143 H        -4991.2319 eV

Volume:                              0.125995E+06 au^3   0.186705E+05 A^3
Pressure:                           -0.130634E-06 au    -0.384338E+07 Pa
>> Charges saved for restart in charges.bin

total energy  -1.8342440E+02 H       energy change -4.4314983E-05 H
gradient norm  5.8718157E-03 H/a0    max. gradient  1.6317193E-03 H/a0
step length    3.2369385E-02 a0      max. step      6.4314081E-03 a0

--------------------------------------------------------------------------------

***  Geometry step: 21

 iSCC Total electronic   Diff electronic      SCC error    
    1   -0.18895029E+03    0.00000000E+00    0.28009256E-03
    2   -0.18894894E+03    0.13529436E-02    0.27495371E-03
    3   -0.18894894E+03   -0.56889462E-08    0.90373519E-04
    4   -0.18894894E+03   -0.92473471E-07    0.88061216E-04
    5   -0.18894894E+03   -0.23754865E-09    0.25539686E-04
    6   -0.18894894E+03   -0.48707420E-08    0.22324777E-04
    7   -0.18894894E+03   -0.12926193E-09    0.88249447E-05

Total Energy:                     -183.4244245924 H        -4991.2325 eV
Extrapolated to 0K:               -183.4244245924 H        -4991.2325 eV
Total Mermin free energy:         -183.4244245924 H        -4991.2325 eV
Force related energy:             -183.4244245924 H        -4991.2325 eV

Volume:                              0.125997E+06 au^3   0.186709E+05 A^3
Pressure:                           -0.151149E-06 au    -0.444694E+07 Pa
>> Charges saved for restart in charges.bin

total energy  -1.8342442E+02 H       energy change -2.1978082E-05 H
gradient norm  3.1652831E-03 H/a0    max. gradient  7.7056881E-04 H/a0
step length    8.6759301E-03 a0      max. step      1.8213731E-03 a0

--------------------------------------------------------------------------------

***  Geometry step: 22

 iSCC Total electronic   Diff electronic      SCC error    
    1   -0.18894894E+03    0.00000000E+00    0.23686892E-03
    2   -0.18894792E+03    0.10236573E-02    0.23096689E-03
    3   -0.18894792E+03   -0.30181866E-08    0.59131543E-04
    4   -0.18894792E+03   -0.45643077E-07    0.57862870E-04
    5   -0.18894792E+03   -0.99220188E-10    0.15841062E-04
    6   -0.18894792E+03   -0.20194193E-08    0.13973016E-04
    7   -0.18894792E+03   -0.94644292E-10    0.58697718E-05

Total Energy:                     -183.4244341779 H        -4991.2328 eV
Extrapolated to 0K:               -183.4244341779 H        -4991.2328 eV
Total Mermin free energy:         -183.4244341779 H        -4991.2328 eV
Force related energy:             -183.4244341779 H        -4991.2328 eV

Volume:                              0.125999E+06 au^3   0.186712E+05 A^3
Pressure:                           -0.165940E-06 au    -0.488212E+07 Pa
>> Charges saved for restart in charges.bin

total energy  -1.8342443E+02 H       energy change -9.5855360E-06 H
gradient norm  2.2148625E-03 H/a0    max. gradient  4.1152340E-04 H/a0
step length    6.8847321E-03 a0      max. step      1.5950303E-03 a0

--------------------------------------------------------------------------------

***  Geometry step: 23

 iSCC Total electronic   Diff electronic      SCC error    
    1   -0.18894792E+03    0.00000000E+00    0.12181395E-03
    2   -0.18894748E+03    0.43675097E-03    0.11889896E-03
    3   -0.18894748E+03   -0.10027463E-08    0.36067171E-04
    4   -0.18894748E+03   -0.15523852E-07    0.35460956E-04
    5   -0.18894748E+03   -0.42803094E-10    0.13256065E-04
    6   -0.18894748E+03   -0.88294883E-09    0.11976287E-04
    7   -0.18894748E+03   -0.33395509E-10    0.46367976E-05

Total Energy:                     -183.4244387370 H        -4991.2329 eV
Extrapolated to 0K:               -183.4244387370 H        -4991.2329 eV
Total Mermin free energy:         -183.4244387370 H        -4991.2329 eV
Force related energy:             -183.4244387370 H        -4991.2329 eV

Volume:                              0.126000E+06 au^3   0.186712E+05 A^3
Pressure:                           -0.170382E-06 au    -0.501282E+07 Pa
>> Charges saved for restart in charges.bin

total energy  -1.8342444E+02 H       energy change -4.5590523E-06 H
gradient norm  2.8735614E-03 H/a0    max. gradient  5.5842523E-04 H/a0
step length    5.3877021E-03 a0      max. step      1.0788737E-03 a0

--------------------------------------------------------------------------------

***  Geometry step: 24

 iSCC Total electronic   Diff electronic      SCC error    
    1   -0.18894748E+03    0.00000000E+00    0.11902098E-03
    2   -0.18894735E+03    0.12895779E-03    0.11638433E-03
    3   -0.18894735E+03   -0.78975404E-09    0.31317315E-04
    4   -0.18894735E+03   -0.13937722E-07    0.30559957E-04
    5   -0.18894735E+03   -0.46128434E-10    0.98957040E-05

Total Energy:                     -183.4244448671 H        -4991.2331 eV
Extrapolated to 0K:               -183.4244448671 H        -4991.2331 eV
Total Mermin free energy:         -183.4244448671 H        -4991.2331 eV
Force related energy:             -183.4244448671 H        -4991.2331 eV

Volume:                              0.126000E+06 au^3   0.186712E+05 A^3
Pressure:                           -0.170660E-06 au    -0.502097E+07 Pa
>> Charges saved for restart in charges.bin

total energy  -1.8342444E+02 H       energy change -6.1301511E-06 H
gradient norm  2.3854388E-03 H/a0    max. gradient  6.5977752E-04 H/a0
step length    6.5243031E-03 a0      max. step      1.3655929E-03 a0

--------------------------------------------------------------------------------

***  Geometry step: 25

 iSCC Total electronic   Diff electronic      SCC error    
    1   -0.18894735E+03    0.00000000E+00    0.12932189E-03
    2   -0.18894782E+03   -0.46847571E-03    0.12692208E-03
    3   -0.18894782E+03   -0.12184387E-08    0.42165761E-04
    4   -0.18894782E+03   -0.19665407E-07    0.41352463E-04
    5   -0.18894782E+03   -0.84298790E-10    0.17714604E-04
    6   -0.18894782E+03   -0.15554633E-08    0.15904373E-04
    7   -0.18894782E+03   -0.46583182E-10    0.51525565E-05

Total Energy:                     -183.4244522476 H        -4991.2333 eV
Extrapolated to 0K:               -183.4244522476 H        -4991.2333 eV
Total Mermin free energy:         -183.4244522476 H        -4991.2333 eV
Force related energy:             -183.4244522476 H        -4991.2333 eV

Volume:                              0.125999E+06 au^3   0.186712E+05 A^3
Pressure:                           -0.166120E-06 au    -0.488743E+07 Pa
>> Charges saved for restart in charges.bin

total energy  -1.8342445E+02 H       energy change -7.3804655E-06 H
gradient norm  2.0249980E-03 H/a0    max. gradient  4.6516746E-04 H/a0
step length    9.0528511E-03 a0      max. step      1.8328032E-03 a0

--------------------------------------------------------------------------------

***  Geometry step: 26

 iSCC Total electronic   Diff electronic      SCC error    
    1   -0.18894782E+03    0.00000000E+00    0.12842138E-03
    2   -0.18894857E+03   -0.74732089E-03    0.12376408E-03
    3   -0.18894857E+03   -0.19855690E-08    0.51803551E-04
    4   -0.18894857E+03   -0.27704374E-07    0.50678803E-04
    5   -0.18894857E+03   -0.66478378E-10    0.15727984E-04
    6   -0.18894857E+03   -0.12487362E-08    0.14139286E-04
    7   -0.18894857E+03   -0.49226401E-10    0.48734524E-05

Total Energy:                     -183.4244594109 H        -4991.2335 eV
Extrapolated to 0K:               -183.4244594109 H        -4991.2335 eV
Total Mermin free energy:         -183.4244594109 H        -4991.2335 eV
Force related energy:             -183.4244594109 H        -4991.2335 eV

Volume:                              0.125998E+06 au^3   0.186709E+05 A^3
Pressure:                           -0.154351E-06 au    -0.454115E+07 Pa
>> Charges saved for restart in charges.bin

total energy  -1.8342446E+02 H       energy change -7.1632602E-06 H
gradient norm  2.1822412E-03 H/a0    max. gradient  5.9795201E-04 H/a0
step length    1.1583572E-02 a0      max. step      2.2798360E-03 a0

--------------------------------------------------------------------------------

***  Geometry step: 27

 iSCC Total electronic   Diff electronic      SCC error    
    1   -0.18894857E+03    0.00000000E+00    0.13576811E-03
    2   -0.18894928E+03   -0.71732007E-03    0.13191774E-03
    3   -0.18894928E+03   -0.19934419E-08    0.35804912E-04
    4   -0.18894928E+03   -0.27681835E-07    0.35153285E-04
    5   -0.18894928E+03   -0.60765615E-10    0.13871541E-04
    6   -0.18894928E+03   -0.10950600E-08    0.12354385E-04
    7   -0.18894928E+03   -0.42319925E-10    0.43278610E-05

Total Energy:                     -183.4244656921 H        -4991.2337 eV
Extrapolated to 0K:               -183.4244656921 H        -4991.2337 eV
Total Mermin free energy:         -183.4244656921 H        -4991.2337 eV
Force related energy:             -183.4244656921 H        -4991.2337 eV

Volume:                              0.125996E+06 au^3   0.186706E+05 A^3
Pressure:                           -0.140789E-06 au    -0.414215E+07 Pa
>> Charges saved for restart in charges.bin

total energy  -1.8342447E+02 H       energy change -6.2812240E-06 H
gradient norm  2.5028071E-03 H/a0    max. gradient  8.5917234E-04 H/a0
step length    1.2316220E-02 a0      max. step      2.2741762E-03 a0

--------------------------------------------------------------------------------

***  Geometry step: 28

 iSCC Total electronic   Diff electronic      SCC error    
    1   -0.18894928E+03    0.00000000E+00    0.15914221E-03
    2   -0.18894996E+03   -0.67300519E-03    0.15495490E-03
    3   -0.18894996E+03   -0.20481821E-08    0.60805614E-04
    4   -0.18894996E+03   -0.30355551E-07    0.59499639E-04
    5   -0.18894996E+03   -0.95667474E-10    0.17576121E-04
    6   -0.18894996E+03   -0.17124648E-08    0.15651563E-04
    7   -0.18894996E+03   -0.56473937E-10    0.53208252E-05

Total Energy:                     -183.4244716510 H        -4991.2338 eV
Extrapolated to 0K:               -183.4244716510 H        -4991.2338 eV
Total Mermin free energy:         -183.4244716510 H        -4991.2338 eV
Force related energy:             -183.4244716510 H        -4991.2338 eV

Volume:                              0.125993E+06 au^3   0.186703E+05 A^3
Pressure:                           -0.125726E-06 au    -0.369897E+07 Pa
>> Charges saved for restart in charges.bin

total energy  -1.8342447E+02 H       energy change -5.9588546E-06 H
gradient norm  2.7787947E-03 H/a0    max. gradient  7.6673859E-04 H/a0
step length    1.4048612E-02 a0      max. step      2.3368076E-03 a0

--------------------------------------------------------------------------------

***  Geometry step: 29

 iSCC Total electronic   Diff electronic      SCC error    
    1   -0.18894996E+03    0.00000000E+00    0.13053831E-03
    2   -0.18895044E+03   -0.48563320E-03    0.12736563E-03
    3   -0.18895044E+03   -0.80638074E-09    0.38626248E-04
    4   -0.18895044E+03   -0.13265890E-07    0.38000836E-04
    5   -0.18895044E+03   -0.38539838E-10    0.11430564E-04
    6   -0.18895044E+03   -0.69550765E-09    0.10215437E-04
    7   -0.18895044E+03   -0.34589220E-10    0.53448392E-05

Total Energy:                     -183.4244783163 H        -4991.2340 eV
Extrapolated to 0K:               -183.4244783163 H        -4991.2340 eV
Total Mermin free energy:         -183.4244783163 H        -4991.2340 eV
Force related energy:             -183.4244783163 H        -4991.2340 eV

Volume:                              0.125990E+06 au^3   0.186699E+05 A^3
Pressure:                           -0.110615E-06 au    -0.325440E+07 Pa
>> Charges saved for restart in charges.bin

total energy  -1.8342448E+02 H       energy change -6.6653393E-06 H
gradient norm  2.1968644E-03 H/a0    max. gradient  3.6858158E-04 H/a0
step length    9.8807884E-03 a0      max. step      1.5889074E-03 a0

--------------------------------------------------------------------------------

***  Geometry step: 30

 iSCC Total electronic   Diff electronic      SCC error    
    1   -0.18895044E+03    0.00000000E+00    0.17475750E-03
    2   -0.18895074E+03   -0.29900989E-03    0.17097170E-03
    3   -0.18895074E+03   -0.18861499E-08    0.65805812E-04
    4   -0.18895074E+03   -0.29451854E-07    0.64722778E-04
    5   -0.18895074E+03   -0.95639052E-10    0.16303652E-04
    6   -0.18895074E+03   -0.18390551E-08    0.14766993E-04
    7   -0.18895074E+03   -0.72930106E-10    0.66653747E-05

Total Energy:                     -183.4244884888 H        -4991.2343 eV
Extrapolated to 0K:               -183.4244884888 H        -4991.2343 eV
Total Mermin free energy:         -183.4244884888 H        -4991.2343 eV
Force related energy:             -183.4244884888 H        -4991.2343 eV

Volume:                              0.125988E+06 au^3   0.186695E+05 A^3
Pressure:                           -0.981632E-07 au    -0.288806E+07 Pa
>> Charges saved for restart in charges.bin

total energy  -1.8342449E+02 H       energy change -1.0172558E-05 H
gradient norm  2.6547799E-03 H/a0    max. gradient  5.6469465E-04 H/a0
step length    1.5424016E-02 a0      max. step      2.6873504E-03 a0

--------------------------------------------------------------------------------

***  Geometry step: 31

 iSCC Total electronic   Diff electronic      SCC error    
    1   -0.18895074E+03    0.00000000E+00    0.18675732E-03
    2   -0.18895080E+03   -0.61919781E-04    0.18184215E-03
    3   -0.18895080E+03   -0.22807853E-08    0.83790214E-04
    4   -0.18895080E+03   -0.35231864E-07    0.82123955E-04
    5   -0.18895080E+03   -0.14568968E-09    0.14945860E-04
    6   -0.18895080E+03   -0.29907881E-08    0.13552770E-04
    7   -0.18895080E+03   -0.81030294E-10    0.67628398E-05

Total Energy:                     -183.4244997984 H        -4991.2346 eV
Extrapolated to 0K:               -183.4244997984 H        -4991.2346 eV
Total Mermin free energy:         -183.4244997984 H        -4991.2346 eV
Force related energy:             -183.4244997984 H        -4991.2346 eV

Volume:                              0.125987E+06 au^3   0.186693E+05 A^3
Pressure:                           -0.920119E-07 au    -0.270708E+07 Pa
>> Charges saved for restart in charges.bin

total energy  -1.8342450E+02 H       energy change -1.1309577E-05 H
gradient norm  3.3222998E-03 H/a0    max. gradient  9.0532866E-04 H/a0
step length    2.1577531E-02 a0      max. step      3.6092163E-03 a0

--------------------------------------------------------------------------------

***  Geometry step: 32

 iSCC Total electronic   Diff electronic      SCC error    
    1   -0.18895080E+03    0.00000000E+00    0.21656140E-03
    2   -0.18895118E+03   -0.37452844E-03    0.21163474E-03
    3   -0.18895118E+03   -0.26155931E-08    0.61810861E-04
    4   -0.18895118E+03   -0.42632280E-07    0.59967713E-04
    5   -0.18895118E+03   -0.22552626E-09    0.22202988E-04
    6   -0.18895118E+03   -0.42986414E-08    0.19773143E-04
    7   -0.18895118E+03   -0.98452801E-10    0.84840281E-05

Total Energy:                     -183.4245113676 H        -4991.2349 eV
Extrapolated to 0K:               -183.4245113676 H        -4991.2349 eV
Total Mermin free energy:         -183.4245113676 H        -4991.2349 eV
Force related energy:             -183.4245113676 H        -4991.2349 eV

Volume:                              0.125985E+06 au^3   0.186691E+05 A^3
Pressure:                           -0.838020E-07 au    -0.246554E+07 Pa
>> Charges saved for restart in charges.bin

total energy  -1.8342451E+02 H       energy change -1.1569175E-05 H
gradient norm  3.7229849E-03 H/a0    max. gradient  8.8103737E-04 H/a0
step length    2.9359705E-02 a0      max. step      4.5693071E-03 a0

--------------------------------------------------------------------------------

***  Geometry step: 33

 iSCC Total electronic   Diff electronic      SCC error    
    1   -0.18895118E+03    0.00000000E+00    0.20272394E-03
    2   -0.18895249E+03   -0.13139389E-02    0.19852521E-03
    3   -0.18895249E+03   -0.23679831E-08    0.63796435E-04
    4   -0.18895249E+03   -0.41519172E-07    0.62510883E-04
    5   -0.18895249E+03   -0.15231194E-09    0.17848434E-04
    6   -0.18895249E+03   -0.29599505E-08    0.15931352E-04
    7   -0.18895249E+03   -0.80177642E-10    0.71142403E-05

Total Energy:                     -183.4245229543 H        -4991.2352 eV
Extrapolated to 0K:               -183.4245229543 H        -4991.2352 eV
Total Mermin free energy:         -183.4245229543 H        -4991.2352 eV
Force related energy:             -183.4245229543 H        -4991.2352 eV

Volume:                              0.125981E+06 au^3   0.186685E+05 A^3
Pressure:                           -0.585117E-07 au    -0.172147E+07 Pa
>> Charges saved for restart in charges.bin

total energy  -1.8342452E+02 H       energy change -1.1586746E-05 H
gradient norm  3.1192594E-03 H/a0    max. gradient  5.9521850E-04 H/a0
step length    3.0314468E-02 a0      max. step      4.4181939E-03 a0

--------------------------------------------------------------------------------

***  Geometry step: 34

 iSCC Total electronic   Diff electronic      SCC error    
    1   -0.18895249E+03    0.00000000E+00    0.17301206E-03
    2   -0.18895451E+03   -0.20216416E-02    0.16871701E-03
    3   -0.18895451E+03   -0.16696902E-08    0.42497725E-04
    4   -0.18895451E+03   -0.27474471E-07    0.41494995E-04
    5   -0.18895451E+03   -0.59230842E-10    0.15902160E-04
    6   -0.18895451E+03   -0.11824284E-08    0.13829846E-04
    7   -0.18895451E+03   -0.51670668E-10    0.49490493E-05

Total Energy:                     -183.4245340733 H        -4991.2355 eV
Extrapolated to 0K:               -183.4245340733 H        -4991.2355 eV
Total Mermin free energy:         -183.4245340733 H        -4991.2355 eV
Force related energy:             -183.4245340733 H        -4991.2355 eV

Volume:                              0.125974E+06 au^3   0.186675E+05 A^3
Pressure:                           -0.150008E-07 au    -0.441340E+06 Pa
>> Charges saved for restart in charges.bin

total energy  -1.8342453E+02 H       energy change -1.1118914E-05 H
gradient norm  2.4512374E-03 H/a0    max. gradient  4.7498509E-04 H/a0
step length    2.0706690E-02 a0      max. step      3.2522131E-03 a0

--------------------------------------------------------------------------------

***  Geometry step: 35

 iSCC Total electronic   Diff electronic      SCC error    
    1   -0.18895451E+03    0.00000000E+00    0.19392664E-03
    2   -0.18895626E+03   -0.17439052E-02    0.18898864E-03
    3   -0.18895626E+03   -0.25938220E-08    0.64091902E-04
    4   -0.18895626E+03   -0.39883304E-07    0.62558487E-04
    5   -0.18895626E+03   -0.79921847E-10    0.18637135E-04
    6   -0.18895626E+03   -0.15266437E-08    0.16459783E-04
    7   -0.18895626E+03   -0.10211920E-09    0.61325257E-05

Total Energy:                     -183.4245441262 H        -4991.2358 eV
Extrapolated to 0K:               -183.4245441262 H        -4991.2358 eV
Total Mermin free energy:         -183.4245441262 H        -4991.2358 eV
Force related energy:             -183.4245441262 H        -4991.2358 eV

Volume:                              0.125968E+06 au^3   0.186666E+05 A^3
Pressure:                            0.225948E-07 au     0.664763E+06 Pa
>> Charges saved for restart in charges.bin

total energy  -1.8342454E+02 H       energy change -1.0052895E-05 H
gradient norm  2.1942610E-03 H/a0    max. gradient  7.1491141E-04 H/a0
step length    2.0340261E-02 a0      max. step      3.3963124E-03 a0

--------------------------------------------------------------------------------

***  Geometry step: 36

 iSCC Total electronic   Diff electronic      SCC error    
    1   -0.18895626E+03    0.00000000E+00    0.14701676E-03
    2   -0.18895586E+03    0.39293897E-03    0.14430934E-03
    3   -0.18895586E+03   -0.83684881E-09    0.43794411E-04
    4   -0.18895586E+03   -0.13073873E-07    0.42723056E-04
    5   -0.18895586E+03   -0.40756731E-10    0.14719928E-04
    6   -0.18895586E+03   -0.74865625E-09    0.13417868E-04
    7   -0.18895586E+03   -0.41524117E-10    0.38404936E-05

Total Energy:                     -183.4245480074 H        -4991.2359 eV
Extrapolated to 0K:               -183.4245480074 H        -4991.2359 eV
Total Mermin free energy:         -183.4245480074 H        -4991.2359 eV
Force related energy:             -183.4245480074 H        -4991.2359 eV

Volume:                              0.125969E+06 au^3   0.186667E+05 A^3
Pressure:                            0.156745E-07 au     0.461159E+06 Pa
>> Charges saved for restart in charges.bin

total energy  -1.8342455E+02 H       energy change -3.8812607E-06 H
gradient norm  1.6578202E-03 H/a0    max. gradient  4.3851418E-04 H/a0
step length    4.8935573E-03 a0      max. step      1.0883003E-03 a0

--------------------------------------------------------------------------------

***  Geometry step: 37

 iSCC Total electronic   Diff electronic      SCC error    
    1   -0.18895586E+03    0.00000000E+00    0.13720947E-03
    2   -0.18895466E+03    0.11988709E-02    0.13372633E-03
    3   -0.18895466E+03   -0.11343104E-08    0.38646143E-04
    4   -0.18895466E+03   -0.18135978E-07    0.37916457E-04
    5   -0.18895466E+03   -0.50022209E-10    0.17528113E-04
    6   -0.18895466E+03   -0.89320906E-09    0.15208544E-04
    7   -0.18895466E+03   -0.51443294E-10    0.33064758E-05

Total Energy:                     -183.4245503902 H        -4991.2360 eV
Extrapolated to 0K:               -183.4245503902 H        -4991.2360 eV
Total Mermin free energy:         -183.4245503902 H        -4991.2360 eV
Force related energy:             -183.4245503902 H        -4991.2360 eV

Volume:                              0.125973E+06 au^3   0.186673E+05 A^3
Pressure:                           -0.898668E-08 au    -0.264397E+06 Pa
>> Charges saved for restart in charges.bin

total energy  -1.8342455E+02 H       energy change -2.3827495E-06 H
gradient norm  1.5654994E-03 H/a0    max. gradient  4.6450688E-04 H/a0
step length    9.3808495E-03 a0      max. step      1.7647132E-03 a0

--------------------------------------------------------------------------------

***  Geometry step: 38

 iSCC Total electronic   Diff electronic      SCC error    
    1   -0.18895466E+03    0.00000000E+00    0.60264127E-04
    2   -0.18895445E+03    0.21548122E-03    0.59124077E-04
    3   -0.18895445E+03   -0.24891733E-09    0.20777237E-04
    4   -0.18895445E+03   -0.40097916E-08    0.20446858E-04
    5   -0.18895445E+03   -0.79296569E-11    0.54231803E-05

Total Energy:                     -183.4245515955 H        -4991.2360 eV
Extrapolated to 0K:               -183.4245515955 H        -4991.2360 eV
Total Mermin free energy:         -183.4245515955 H        -4991.2360 eV
Force related energy:             -183.4245515955 H        -4991.2360 eV

Volume:                              0.125974E+06 au^3   0.186674E+05 A^3
Pressure:                           -0.132923E-07 au    -0.391073E+06 Pa
>> Charges saved for restart in charges.bin

total energy  -1.8342455E+02 H       energy change -1.2053573E-06 H
gradient norm  8.9297868E-04 H/a0    max. gradient  1.8042639E-04 H/a0
step length    1.6592023E-03 a0      max. step      3.1993928E-04 a0

--------------------------------------------------------------------------------

***  Geometry step: 39

 iSCC Total electronic   Diff electronic      SCC error    
    1   -0.18895445E+03    0.00000000E+00    0.49612310E-04
    2   -0.18895438E+03    0.71529277E-04    0.48298688E-04
    3   -0.18895438E+03   -0.13153567E-09    0.13512086E-04
    4   -0.18895438E+03   -0.21133246E-08    0.13160907E-04
    5   -0.18895438E+03   -0.52864380E-11    0.32698413E-05

Total Energy:                     -183.4245523286 H        -4991.2360 eV
Extrapolated to 0K:               -183.4245523286 H        -4991.2360 eV
Total Mermin free energy:         -183.4245523286 H        -4991.2360 eV
Force related energy:             -183.4245523286 H        -4991.2360 eV

Volume:                              0.125974E+06 au^3   0.186674E+05 A^3
Pressure:                           -0.153280E-07 au    -0.450965E+06 Pa
>> Charges saved for restart in charges.bin

total energy  -1.8342455E+02 H       energy change -7.3307146E-07 H
gradient norm  7.5904585E-04 H/a0    max. gradient  1.8223445E-04 H/a0
step length    1.3801079E-03 a0      max. step      2.5879767E-04 a0

--------------------------------------------------------------------------------

***  Geometry step: 40

 iSCC Total electronic   Diff electronic      SCC error    
    1   -0.18895438E+03    0.00000000E+00    0.82122348E-04
    2   -0.18895471E+03   -0.33293359E-03    0.80586845E-04
    3   -0.18895471E+03   -0.24857627E-09    0.23895801E-04
    4   -0.18895471E+03   -0.43174566E-08    0.23364645E-04
    5   -0.18895471E+03   -0.21884716E-10    0.67643289E-05

Total Energy:                     -183.4245537033 H        -4991.2361 eV
Extrapolated to 0K:               -183.4245537033 H        -4991.2361 eV
Total Mermin free energy:         -183.4245537033 H        -4991.2361 eV
Force related energy:             -183.4245537033 H        -4991.2361 eV

Volume:                              0.125973E+06 au^3   0.186672E+05 A^3
Pressure:                           -0.746404E-08 au    -0.219600E+06 Pa
>> Charges saved for restart in charges.bin

total energy  -1.8342455E+02 H       energy change -1.3747181E-06 H
gradient norm  7.6872392E-04 H/a0    max. gradient  1.4916246E-04 H/a0
step length    1.1772844E-02 a0      max. step      1.9429765E-03 a0

--------------------------------------------------------------------------------

***  Geometry step: 41

 iSCC Total electronic   Diff electronic      SCC error    
    1   -0.18895471E+03    0.00000000E+00    0.44420832E-04
    2   -0.18895478E+03   -0.67237086E-04    0.43461359E-04
    3   -0.18895478E+03   -0.52494897E-10    0.11828363E-04
    4   -0.18895478E+03   -0.76659035E-09    0.11599846E-04
    5   -0.18895478E+03   -0.40927262E-11    0.34549515E-05

Total Energy:                     -183.4245542548 H        -4991.2361 eV
Extrapolated to 0K:               -183.4245542548 H        -4991.2361 eV
Total Mermin free energy:         -183.4245542548 H        -4991.2361 eV
Force related energy:             -183.4245542548 H        -4991.2361 eV

Volume:                              0.125973E+06 au^3   0.186673E+05 A^3
Pressure:                           -0.778405E-08 au    -0.229015E+06 Pa
>> Charges saved for restart in charges.bin

total energy  -1.8342455E+02 H       energy change -5.5149187E-07 H
gradient norm  7.5252213E-04 H/a0    max. gradient  1.8102654E-04 H/a0
step length    1.8909117E-03 a0      max. step      4.3739596E-04 a0

--------------------------------------------------------------------------------

***  Geometry step: 42

 iSCC Total electronic   Diff electronic      SCC error    
    1   -0.18895478E+03    0.00000000E+00    0.54513016E-04
    2   -0.18895486E+03   -0.77237814E-04    0.53272324E-04
    3   -0.18895486E+03   -0.12613555E-09    0.15318457E-04
    4   -0.18895486E+03   -0.19667823E-08    0.15035956E-04
    5   -0.18895486E+03   -0.71054274E-11    0.55359711E-05

Total Energy:                     -183.4245550417 H        -4991.2361 eV
Extrapolated to 0K:               -183.4245550417 H        -4991.2361 eV
Total Mermin free energy:         -183.4245550417 H        -4991.2361 eV
Force related energy:             -183.4245550417 H        -4991.2361 eV

Volume:                              0.125973E+06 au^3   0.186673E+05 A^3
Pressure:                           -0.852320E-08 au    -0.250761E+06 Pa
>> Charges saved for restart in charges.bin

total energy  -1.8342456E+02 H       energy change -7.8693483E-07 H
gradient norm  7.1915055E-04 H/a0    max. gradient  2.0010578E-04 H/a0
step length    3.5575939E-03 a0      max. step      8.2264821E-04 a0

--------------------------------------------------------------------------------

***  Geometry step: 43

 iSCC Total electronic   Diff electronic      SCC error    
    1   -0.18895486E+03    0.00000000E+00    0.40319316E-04
    2   -0.18895470E+03    0.15751188E-03    0.39424967E-04
    3   -0.18895470E+03   -0.93081098E-10    0.11545680E-04
    4   -0.18895470E+03   -0.14639738E-08    0.11256770E-04
    5   -0.18895470E+03   -0.51159077E-11    0.33139041E-05

Total Energy:                     -183.4245557008 H        -4991.2361 eV
Extrapolated to 0K:               -183.4245557008 H        -4991.2361 eV
Total Mermin free energy:         -183.4245557008 H        -4991.2361 eV
Force related energy:             -183.4245557008 H        -4991.2361 eV

Volume:                              0.125974E+06 au^3   0.186674E+05 A^3
Pressure:                           -0.103289E-07 au    -0.303886E+06 Pa
>> Charges saved for restart in charges.bin

total energy  -1.8342456E+02 H       energy change -6.5903322E-07 H
gradient norm  6.6308527E-04 H/a0    max. gradient  1.3881706E-04 H/a0
step length    3.0978563E-03 a0      max. step      6.6725920E-04 a0

--------------------------------------------------------------------------------

***  Geometry step: 44

 iSCC Total electronic   Diff electronic      SCC error    
    1   -0.18895470E+03    0.00000000E+00    0.47223195E-04
    2   -0.18895462E+03    0.81127408E-04    0.46427323E-04
    3   -0.18895462E+03   -0.11999646E-09    0.15856848E-04
    4   -0.18895462E+03   -0.18675337E-08    0.15431271E-04
    5   -0.18895462E+03   -0.65085715E-11    0.52095077E-05

Total Energy:                     -183.4245563442 H        -4991.2361 eV
Extrapolated to 0K:               -183.4245563442 H        -4991.2361 eV
Total Mermin free energy:         -183.4245563442 H        -4991.2361 eV
Force related energy:             -183.4245563442 H        -4991.2361 eV

Volume:                              0.125974E+06 au^3   0.186674E+05 A^3
Pressure:                           -0.107096E-07 au    -0.315086E+06 Pa
>> Charges saved for restart in charges.bin

total energy  -1.8342456E+02 H       energy change -6.4338298E-07 H
gradient norm  6.8403514E-04 H/a0    max. gradient  1.2387846E-04 H/a0
step length    3.6978370E-03 a0      max. step      7.5738461E-04 a0

--------------------------------------------------------------------------------

***  Geometry step: 45

 iSCC Total electronic   Diff electronic      SCC error    
    1   -0.18895462E+03    0.00000000E+00    0.50345266E-04
    2   -0.18895462E+03    0.16735672E-06    0.49480566E-04
    3   -0.18895462E+03   -0.92683194E-10    0.16387488E-04
    4   -0.18895462E+03   -0.13218369E-08    0.16094768E-04
    5   -0.18895462E+03   -0.67075234E-11    0.59658390E-05

Total Energy:                     -183.4245568155 H        -4991.2361 eV
Extrapolated to 0K:               -183.4245568155 H        -4991.2361 eV
Total Mermin free energy:         -183.4245568155 H        -4991.2361 eV
Force related energy:             -183.4245568155 H        -4991.2361 eV

Volume:                              0.125973E+06 au^3   0.186673E+05 A^3
Pressure:                           -0.102961E-07 au    -0.302921E+06 Pa
>> Charges saved for restart in charges.bin

total energy  -1.8342456E+02 H       energy change -4.7132585E-07 H
gradient norm  7.6961929E-04 H/a0    max. gradient  1.8972438E-04 H/a0
step length    3.6259618E-03 a0      max. step      7.5015158E-04 a0

--------------------------------------------------------------------------------

***  Geometry step: 46

 iSCC Total electronic   Diff electronic      SCC error    
    1   -0.18895462E+03    0.00000000E+00    0.36472830E-04
    2   -0.18895459E+03    0.22194098E-04    0.35805737E-04
    3   -0.18895459E+03   -0.45588422E-10    0.91548971E-05

Total Energy:                     -183.4245571950 H        -4991.2362 eV
Extrapolated to 0K:               -183.4245571950 H        -4991.2362 eV
Total Mermin free energy:         -183.4245571950 H        -4991.2362 eV
Force related energy:             -183.4245571950 H        -4991.2362 eV

Volume:                              0.125973E+06 au^3   0.186673E+05 A^3
Pressure:                           -0.104166E-07 au    -0.306466E+06 Pa
>> Charges saved for restart in charges.bin

total energy  -1.8342456E+02 H       energy change -3.7948510E-07 H
gradient norm  4.8766508E-04 H/a0    max. gradient  1.0330403E-04 H/a0
step length    1.0685429E-03 a0      max. step      1.8350532E-04 a0

--------------------------------------------------------------------------------

***  Geometry step: 47

 iSCC Total electronic   Diff electronic      SCC error    
    1   -0.18895459E+03    0.00000000E+00    0.54616483E-04
    2   -0.18895463E+03   -0.38820395E-04    0.53620327E-04
    3   -0.18895463E+03   -0.54001248E-10    0.11573810E-04
    4   -0.18895463E+03   -0.95906216E-09    0.11376513E-04
    5   -0.18895463E+03   -0.47180038E-11    0.44748303E-05

Total Energy:                     -183.4245575505 H        -4991.2362 eV
Extrapolated to 0K:               -183.4245575505 H        -4991.2362 eV
Total Mermin free energy:         -183.4245575505 H        -4991.2362 eV
Force related energy:             -183.4245575505 H        -4991.2362 eV

Volume:                              0.125973E+06 au^3   0.186673E+05 A^3
Pressure:                           -0.104686E-07 au    -0.307997E+06 Pa
>> Charges saved for restart in charges.bin

total energy  -1.8342456E+02 H       energy change -3.5552077E-07 H
gradient norm  4.3176127E-04 H/a0    max. gradient  1.0282964E-04 H/a0
step length    1.4749475E-03 a0      max. step      3.2260849E-04 a0

--------------------------------------------------------------------------------

***  Geometry step: 48

 iSCC Total electronic   Diff electronic      SCC error    
    1   -0.18895463E+03    0.00000000E+00    0.30446965E-04
    2   -0.18895466E+03   -0.29786260E-04    0.29755811E-04
    3   -0.18895466E+03   -0.42916781E-10    0.93715177E-05

Total Energy:                     -183.4245579525 H        -4991.2362 eV
Extrapolated to 0K:               -183.4245579525 H        -4991.2362 eV
Total Mermin free energy:         -183.4245579525 H        -4991.2362 eV
Force related energy:             -183.4245579525 H        -4991.2362 eV

Volume:                              0.125974E+06 au^3   0.186674E+05 A^3
Pressure:                           -0.107529E-07 au    -0.316360E+06 Pa
>> Charges saved for restart in charges.bin

total energy  -1.8342456E+02 H       energy change -4.0196795E-07 H
gradient norm  5.3208683E-04 H/a0    max. gradient  1.1337804E-04 H/a0
step length    3.7038147E-03 a0      max. step      9.1926421E-04 a0

--------------------------------------------------------------------------------

***  Geometry step: 49

 iSCC Total electronic   Diff electronic      SCC error    
    1   -0.18895466E+03    0.00000000E+00    0.39044873E-04
    2   -0.18895473E+03   -0.71784879E-04    0.38149233E-04
    3   -0.18895473E+03   -0.30269121E-10    0.10385427E-04
    4   -0.18895473E+03   -0.54896532E-09    0.10214467E-04
    5   -0.18895473E+03   -0.20747848E-11    0.27223318E-05

Total Energy:                     -183.4245583412 H        -4991.2362 eV
Extrapolated to 0K:               -183.4245583412 H        -4991.2362 eV
Total Mermin free energy:         -183.4245583412 H        -4991.2362 eV
Force related energy:             -183.4245583412 H        -4991.2362 eV

Volume:                              0.125974E+06 au^3   0.186674E+05 A^3
Pressure:                           -0.101409E-07 au    -0.298355E+06 Pa
>> Charges saved for restart in charges.bin

total energy  -1.8342456E+02 H       energy change -3.8878568E-07 H
gradient norm  6.1510563E-04 H/a0    max. gradient  1.1867344E-04 H/a0
step length    4.5528895E-03 a0      max. step      1.0756140E-03 a0

--------------------------------------------------------------------------------

***  Geometry step: 50

 iSCC Total electronic   Diff electronic      SCC error    
    1   -0.18895473E+03    0.00000000E+00    0.28152561E-04
    2   -0.18895470E+03    0.31496655E-04    0.27525091E-04
    3   -0.18895470E+03   -0.49055870E-10    0.11184374E-04
    4   -0.18895470E+03   -0.70866690E-09    0.10912046E-04
    5   -0.18895470E+03   -0.26716407E-11    0.30299175E-05

Total Energy:                     -183.4245586276 H        -4991.2362 eV
Extrapolated to 0K:               -183.4245586276 H        -4991.2362 eV
Total Mermin free energy:         -183.4245586276 H        -4991.2362 eV
Force related energy:             -183.4245586276 H        -4991.2362 eV

Volume:                              0.125974E+06 au^3   0.186674E+05 A^3
Pressure:                           -0.105367E-07 au    -0.310000E+06 Pa
>> Charges saved for restart in charges.bin

total energy  -1.8342456E+02 H       energy change -2.8638416E-07 H
gradient norm  5.1082021E-04 H/a0    max. gradient  1.1108322E-04 H/a0
step length    1.2520882E-03 a0      max. step      2.1347125E-04 a0

--------------------------------------------------------------------------------

***  Geometry step: 51

 iSCC Total electronic   Diff electronic      SCC error    
    1   -0.18895470E+03    0.00000000E+00    0.41216835E-04
    2   -0.18895464E+03    0.60646855E-04    0.40423098E-04
    3   -0.18895464E+03   -0.58463456E-10    0.15128654E-04
    4   -0.18895464E+03   -0.85609031E-09    0.14732911E-04
    5   -0.18895464E+03   -0.47180038E-11    0.45142280E-05

Total Energy:                     -183.4245588898 H        -4991.2362 eV
Extrapolated to 0K:               -183.4245588898 H        -4991.2362 eV
Total Mermin free energy:         -183.4245588898 H        -4991.2362 eV
Force related energy:             -183.4245588898 H        -4991.2362 eV

Volume:                              0.125974E+06 au^3   0.186674E+05 A^3
Pressure:                           -0.103845E-07 au    -0.305522E+06 Pa
>> Charges saved for restart in charges.bin

total energy  -1.8342456E+02 H       energy change -2.6212939E-07 H
gradient norm  3.4151458E-04 H/a0    max. gradient  6.5130966E-05 H/a0
step length    1.3955902E-03 a0      max. step      2.7792264E-04 a0

Geometry converged

--------------------------------------------------------------------------------
DFTB+ running times                          cpu [s]             wall clock [s]
--------------------------------------------------------------------------------
Global initialisation                  +       0.00 (  0.0%)       0.03 (  0.0%)
Pre-SCC initialisation                 +      24.67 (  6.2%)       0.85 (  1.2%)
SCC                                    +     330.45 ( 83.0%)      60.49 ( 85.6%)
Post-SCC processing                    +      42.25 ( 10.6%)       9.27 ( 13.1%)
Post-geometry optimisation             +       0.74 (  0.2%)       0.03 (  0.0%)
--------------------------------------------------------------------------------
Missing                                +       0.00 (  0.0%)       0.00 (  0.0%)
Total                                  =     398.11 (100.0%)      70.69 (100.0%)
--------------------------------------------------------------------------------
