  480
Geometry Step: 34
    C      0.35390416      1.68555013     -0.09102408      3.94037543
    C      0.35143571      0.26286685     -0.09097809      3.94037525
    C      1.58227115     -0.45053225     -0.09086995      3.94036864
    C      2.81551446      0.25873982     -0.09076997      3.94038531
    C      2.81789223      1.68142144     -0.09092361      3.94039866
    C      1.58706915      2.39493374     -0.09107296      3.94037614
    C      4.04906143     -0.45675803     -0.09073932      4.06559363
    C      5.11149430     -1.07547657     -0.09075132      3.99333030
    C      6.29536634     -1.76252773     -0.09067061      3.99923335
    C      7.36481453     -2.38267627     -0.09053158      4.00145839
    C      8.54610641     -3.06629341     -0.09046814      4.00145483
    C      9.61661808     -3.68459847     -0.09052071      3.99923646
    C     10.80153459     -4.36980196     -0.09055305      3.99332506
    C     11.86601325     -4.98496569     -0.09059000      4.06559791
    C      4.05414415      2.39223826     -0.09089174      4.06560288
    C      5.11997072      3.00512816     -0.09089486      3.99333391
    C      6.30632873      3.68795369     -0.09090598      3.99923866
    C      7.37728360      4.30556177     -0.09093288      4.00145968
    C      8.56001710      4.98671713     -0.09095053      4.00145965
    C      9.63138073      5.60354443     -0.09096040      3.99923174
    C     10.81802165      6.28569936     -0.09096053      3.99332925
    C     11.88444919      6.89745317     -0.09094984      4.06558813
    C      1.58913312      3.82100078     -0.09107679      4.06560087
    C      1.58864444      5.05048493     -0.09103451      3.99331759
    C      1.59040729      6.41928920     -0.09109398      3.99923795
    C      1.59295347      7.65555749     -0.09122526      4.00145466
    C      1.59614686      9.02041387     -0.09129479      4.00145679
    C      1.59960135     10.25667037     -0.09126531      3.99923384
    C      1.60248206     11.62546803     -0.09126415      3.99332733
    C      1.60450532     12.85492542     -0.09127115      4.06559800
    C      0.37735860     16.41659722     -0.09139593      3.94037882
    C      0.37539353     14.99390976     -0.09138157      3.94037244
    C      1.60648764     14.28095069     -0.09128016      3.94036560
    C      2.83947315     14.99066434     -0.09114543      3.94038628
    C      2.84128502     16.41334022     -0.09119618      3.94040205
    C      1.61025088     17.12649129     -0.09134775      3.94037392
    C      4.07329068     14.27561086     -0.09109853      4.06559592
    C      5.13565557     13.65675995     -0.09106330      3.99332832
    C      6.31954853     12.96975192     -0.09100881      3.99923369
    C      7.38892261     12.34948131     -0.09097414      4.00145729
    C      8.57006423     11.66560797     -0.09091157      4.00145685
    C      9.64022111     11.04669140     -0.09085921      3.99923427
    C     10.82499364     10.36125104     -0.09086620      3.99332894
    C     11.88928001      9.74575197     -0.09094779      4.06559647
    C      4.07727079     17.12452634     -0.09124993      4.06560027
    C      5.14284864     17.73777757     -0.09131887      3.99333560
    C      6.32902011     18.42081160     -0.09135108      3.99924175
    C      7.39996304     19.03836788     -0.09138629      4.00145733
    C      8.58262496     19.71950790     -0.09136988      4.00146517
    C      9.65397365     20.33627846     -0.09133641      3.99922467
    C     10.84059484     21.01830240     -0.09132769      3.99334467
    C     11.90711138     21.62982062     -0.09134337      4.06557488
    C      1.61191799     18.55263270     -0.09143415      4.06560676
    C      1.61109779     19.78214329     -0.09145900      3.99331232
    C      1.61273206     21.15101211     -0.09153989      3.99923810
    C      1.61555390     22.38730597     -0.09167830      4.00145474
    C      1.61881430     23.75221682     -0.09171397      4.00145315
    C      1.62226702     24.98850275     -0.09164188      3.99923747
    C      1.62508658     26.35735907     -0.09163177      3.99331569
    C      1.62696239     27.58686117     -0.09166485      4.06560870
    C      0.39985165     31.14880410     -0.09179402      3.94037759
    C      0.39802151     29.72611969     -0.09178275      3.94038216
    C      1.62901208     29.01296858     -0.09168156      3.94036048
    C      2.86194774     29.72278566     -0.09154400      3.94038632
    C      2.86373856     31.14548235     -0.09159120      3.94041602
    C      1.63272917     31.85867364     -0.09174184      3.94035828
    C      4.09583296     29.00788065     -0.09149271      4.06559269
    C      5.15834640     28.38930421     -0.09145818      3.99333178
    C      6.34230101     27.70242027     -0.09140310      3.99923145
    C      7.41167242     27.08214971     -0.09136907      4.00145933
    C      8.59280913     26.39828636     -0.09130602      4.00145384
    C      9.66295460     25.77934751     -0.09125458      3.99923802
    C     10.84767177     25.09381005     -0.09126091      3.99332336
    C     11.91174972     24.47794560     -0.09134211      4.06559848
    C      4.09971400     31.85671523     -0.09164331      4.06559336
    C      5.16515979     32.47021665     -0.09171333      3.99334362
    C      6.35129291     33.15333389     -0.09174532      3.99923111
    C      7.42221315     33.77094325     -0.09178092      4.00146586
    C      8.60489182     34.45209675     -0.09176378      4.00145273
    C      9.67631031     35.06878237     -0.09173038      3.99923776
    C     10.86310265     35.75061054     -0.09172294      3.99332399
    C     11.93002295     36.36148285     -0.09174655      4.06559236
    C      1.63443598     33.28478808     -0.09182717      4.06561139
    C      1.63368414     34.51428998     -0.09185347      3.99330695
    C      1.63535422     35.88312690     -0.09193428      3.99924622
    C      1.63816765     37.11940449     -0.09207307      4.00144690
    C      1.64141329     38.48426831     -0.09210762      4.00146260
    C      1.64486921     39.72052878     -0.09203523      3.99922740
    C      1.64779390     41.08932446     -0.09202652      3.99333113
    C      1.65011761     42.31879023     -0.09206796      4.06559406
    C      0.42301510     45.88044798     -0.09217524      3.94037486
    C      0.42102776     44.45777516     -0.09217301      3.94036190
    C      1.65214823     43.74483223     -0.09207238      3.94038372
    C      2.88517954     44.45455090     -0.09192431      3.94039258
    C      2.88714140     45.87725208     -0.09196753      3.94039617
    C      1.65598078     46.59021902     -0.09211975      3.94037647
    C      4.11898469     43.73950527     -0.09188419      4.06559281
    C      5.18173451     43.12132818     -0.09185241      3.99333250
    C      6.36573953     42.43454572     -0.09179952      3.99923004
    C      7.43520521     41.81444327     -0.09176289      4.00146025
    C      8.61632245     41.13055016     -0.09170033      4.00145362
    C      9.68645503     40.51159058     -0.09165003      3.99923800
    C     10.87106684     39.82587166     -0.09165527      3.99332382
    C     11.93503075     39.20979741     -0.09173299      4.06559943
    C      4.12310696     46.58870985     -0.09204343      4.06561276
    C      5.18817605     47.20295549     -0.09217971      3.99332359
    C      6.37416333     47.88647986     -0.09220577      3.99924323
    C      7.44498846     48.50428162     -0.09216147      4.00145197
    C      8.62789826     49.18511129     -0.09209164      4.00146099
    C      9.69980032     49.80098123     -0.09203279      3.99922860
    C     10.88683833     50.48244486     -0.09204095      3.99333187
    C     11.95364668     51.09353512     -0.09212231      4.06558671
    C      1.65750264     48.01627676     -0.09222689      4.06559777
    C      1.65635201     49.24574150     -0.09232049      3.99332288
    C      1.65777959     50.61453124     -0.09239549      3.99923505
    C      1.66042078     51.85077714     -0.09245520      4.00145623
    C      1.66391091     53.21561302     -0.09243665      4.00145676
    C      1.66796559     54.45185754     -0.09233638      3.99923427
    C      1.67118719     55.82062812     -0.09234113      3.99332515
    C      1.67319563     57.05009376     -0.09243666      4.06560358
    C     13.09967625     -5.70022507     -0.09058537      3.94036016
    C     13.09681327     -7.12290058     -0.09054499      3.94038590
    C     14.32741766     -7.83678286     -0.09053008      3.94037882
    C     15.56101508     -7.12804714     -0.09053033      3.94037668
    C     15.56375502     -5.70533836     -0.09068540      3.94040728
    C     14.33315463     -4.99137107     -0.09072725      3.94038386
    C     16.79443845     -7.84398655     -0.09045944      4.06560534
    C     17.85678315     -8.46294860     -0.09040992      3.99331637
    C     19.04060940     -9.15022796     -0.09030859      3.99923412
    C     20.11008414     -9.77040472     -0.09014822      4.00145550
    C     21.29141050    -10.45410368     -0.09011211      4.00144945
    C     22.36198424    -11.07239987     -0.09020321      3.99924251
    C     23.54704921    -11.75755652     -0.09024534      3.99330893
    C     24.61173139    -12.37249803     -0.09025972      4.06561697
    C     16.80017609     -4.99489284     -0.09061001      4.06559896
    C     17.86615512     -4.38231439     -0.09055415      3.99333523
    C     19.05251184     -3.69962350     -0.09054574      3.99923481
    C     20.12331195     -3.08180985     -0.09054969      4.00146049
    C     21.30596959     -2.40060813     -0.09059437      4.00145831
    C     22.37732167     -1.78378571     -0.09064341      3.99923395
    C     23.56400594     -1.10170032     -0.09065358      3.99333384
    C     24.63054617     -0.49014000     -0.09061889      4.06559312
    C     14.33561088     -3.56530564     -0.09073567      4.06560224
    C     14.33486854     -2.33582638     -0.09076321      3.99331937
    C     14.33642292     -0.96703969     -0.09081643      3.99923583
    C     14.33829357      0.26922050     -0.09085879      4.00145479
    C     14.34129769      1.63407104     -0.09092860      4.00145688
    C     14.34470397      2.87033743     -0.09098652      3.99923561
    C     14.34759632      4.23915291     -0.09099331      3.99332863
    C     14.34920143      5.46863768     -0.09093227      4.06560491
    C     13.12311462      9.03082024     -0.09096379      3.94036065
    C     13.12071875      7.60814493     -0.09094950      3.94038646
    C     14.35157364      6.89469349     -0.09093366      3.94037292
    C     15.58493060      7.60385036     -0.09090871      3.94038033
    C     15.58713991      9.02655534     -0.09095963      3.94040812
    C     14.35633162      9.74016979     -0.09100117      3.94038384
    C     16.81862332      6.88834449     -0.09081770      4.06560834
    C     17.88091952      6.26928126     -0.09072367      3.99331458
    C     19.06477300      5.58205417     -0.09064788      3.99923400
    C     20.13417950      4.96176549     -0.09059089      4.00145495
    C     21.31535675      4.27780929     -0.09055459      4.00145079
    C     22.38557387      3.65889957     -0.09054306      3.99924091
    C     23.57049843      2.97350294     -0.09055929      3.99331256
    C     24.63498941      2.35822655     -0.09061710      4.06561582
    C     16.82330263      9.73736063     -0.09096972      4.06559647
    C     17.88902497     10.35032066     -0.09097911      3.99333530
    C     19.07518972     11.03322328     -0.09098990      3.99923817
    C     20.14597772     11.65098822     -0.09100360      4.00145734
    C     21.32856017     12.33217411     -0.09101296      4.00146382
    C     22.39990017     12.94893918     -0.09101921      3.99922654
    C     23.58656379     13.63089433     -0.09101959      3.99334912
    C     24.65319743     14.24222068     -0.09101332      4.06558048
    C     14.35840831     11.16631602     -0.09109474      4.06560945
    C     14.35732366     12.39582520     -0.09118731      3.99331423
    C     14.35874970     13.76468020     -0.09126073      3.99923612
    C     14.36089662     15.00096861     -0.09131261      4.00145515
    C     14.36396637     16.36587347     -0.09134781      4.00145283
    C     14.36736851     17.60216839     -0.09136175      3.99923931
    C     14.37019914     18.97104105     -0.09135874      3.99331671
    C     14.37165923     20.20057007     -0.09132653      4.06561529
    C     13.14561259     23.76302696     -0.09136145      3.94035931
    C     13.14335523     22.34035625     -0.09135050      3.94039665
    C     14.37410130     21.62670676     -0.09133571      3.94036723
    C     15.60740554     22.33597029     -0.09130628      3.94038064
    C     15.60959325     23.75869660     -0.09135470      3.94042255
    C     14.37881214     24.47235311     -0.09139616      3.94036740
    C     16.84116811     21.62061448     -0.09121250      4.06560531
    C     17.90361215     21.00182463     -0.09111806      3.99331819
    C     19.08752853     20.31472104     -0.09104244      3.99923190
    C     20.15693156     19.69443180     -0.09098545      4.00145707
    C     21.33810313     19.01048695     -0.09094935      4.00144761
    C     22.40830626     18.39155605     -0.09093709      3.99924447
    C     23.59317227     17.70606339     -0.09095347      3.99330669
    C     24.65745283     17.09042154     -0.09101233      4.06561782
    C     16.84574706     24.46954719     -0.09136269      4.06558962
    C     17.91133559     25.08276012     -0.09137342      3.99334365
    C     19.09746284     25.76574680     -0.09138501      3.99922742
    C     20.16822725     26.38356447     -0.09139755      4.00146595
    C     21.35082675     27.06476405     -0.09140726      4.00145141
    C     22.42223596     27.68144387     -0.09141380      3.99923964
    C     23.60907025     28.36320290     -0.09141594      3.99332827
    C     24.67610689     28.97388389     -0.09141554      4.06559813
    C     14.38092949     25.89847031     -0.09148844      4.06561382
    C     14.37990944     27.12797099     -0.09158179      3.99330896
    C     14.38137086     28.49679378     -0.09165511      3.99924410
    C     14.38351016     29.73306582     -0.09170685      4.00144739
    C     14.38656481     31.09792588     -0.09174189      4.00146248
    C     14.38997269     32.33419571     -0.09175699      3.99922918
    C     14.39290850     33.70301039     -0.09175551      3.99333243
    C     14.39481275     34.93250330     -0.09172898      4.06560081
    C     13.16878088     38.49467313     -0.09174250      3.94035680
    C     13.16636186     37.07201532     -0.09174113      3.94037537
    C     14.39723759     36.35857576     -0.09172529      3.94039089
    C     15.63063778     37.06773960     -0.09168800      3.94038685
    C     15.63299730     38.49046883     -0.09173174      3.94040216
    C     14.40206735     39.20389978     -0.09177283      3.94038544
    C     16.86431966     36.35224236     -0.09160318      4.06560561
    C     17.92699889     35.73384969     -0.09151265      3.99331887
    C     19.11096611     35.04684836     -0.09143851      3.99923050
    C     20.18046303     34.42672691     -0.09137949      4.00145812
    C     21.36161544     33.74275215     -0.09134326      4.00144718
    C     22.43180444     33.12380041     -0.09133376      3.99924448
    C     23.61656747     32.43812548     -0.09134831      3.99330746
    C     24.68073528     31.82227486     -0.09140246      4.06561864
    C     16.86914005     39.20154333     -0.09176244      4.06560853
    C     17.93435141     39.81549972     -0.09184003      3.99332378
    C     19.12033440     40.49889342     -0.09184493      3.99923952
    C     20.19100394     41.11690541     -0.09177898      4.00145258
    C     21.37383517     41.79778282     -0.09173485      4.00145907
    C     22.44572481     42.41364697     -0.09171565      3.99923048
    C     23.63280602     43.09503981     -0.09173283      3.99333602
    C     24.69973075     43.70593505     -0.09179217      4.06559198
    C     14.40399597     40.62996193     -0.09188748      4.06560102
    C     14.40257456     41.85942369     -0.09204891      3.99332338
    C     14.40379322     43.22819863     -0.09211633      3.99923456
    C     14.40575512     44.46444858     -0.09208807      4.00145737
    C     14.40905876     45.82927663     -0.09206939      4.00145464
    C     14.41307529     47.06552955     -0.09205776      3.99923835
    C     14.41632317     48.43432697     -0.09207125      3.99332486
    C     14.41795451     49.66380533     -0.09210416      4.06561016
    C     25.84556108    -13.08774681     -0.09024823      3.94035328
    C     25.84287380    -14.51044815     -0.09020827      3.94039153
    C     27.07346264    -15.22438002     -0.09019551      3.94038051
    C     28.30704551    -14.51567878     -0.09019943      3.94035930
    C     28.30973677    -13.09299239     -0.09035410      3.94041653
    C     27.07913014    -12.37901951     -0.09039281      3.94038555
    C     29.54039964    -15.23166322     -0.09012884      4.06560833
    C     30.60260057    -15.85084888     -0.09007853      3.99331148
    C     31.78637977    -16.53821666     -0.08997664      3.99924426
    C     32.85582926    -17.15844312     -0.08981651      4.00144843
    C     34.03716927    -17.84214531     -0.08978066      4.00146597
    C     35.10778926    -18.46034724     -0.08987264      3.99922791
    C     36.29292310    -19.14529779     -0.08991335      3.99333688
    C     37.35786799    -19.75969929     -0.08992101      4.06559332
    C     29.54610797    -12.38249037     -0.09027952      4.06558843
    C     30.61203098    -11.76981801     -0.09022312      3.99334362
    C     31.79837666    -11.08706040     -0.09021369      3.99922621
    C     32.86918785    -10.46922317     -0.09021912      4.00146931
    C     34.05190620     -9.78800613     -0.09026300      4.00145264
    C     35.12330552     -9.17120588     -0.09031201      3.99924175
    C     36.31000012     -8.48904573     -0.09032014      3.99332796
    C     37.37634192     -7.87711759     -0.09028115      4.06559823
    C     27.08157195    -10.95297312     -0.09040425      4.06559961
    C     27.08035294     -9.72350036     -0.09043188      3.99332421
    C     27.08176149     -8.35470319     -0.09048498      3.99923402
    C     27.08359593     -7.11843531     -0.09052773      4.00145754
    C     27.08660419     -5.75356107     -0.09059744      4.00145646
    C     27.09002856     -4.51728478     -0.09065471      3.99923743
    C     27.09308495     -3.14845138     -0.09066100      3.99332690
    C     27.09507798     -1.91896302     -0.09060109      4.06560539
    C     25.86899499      1.64330841     -0.09062647      3.94035290
    C     25.86678682      0.22060852     -0.09061184      3.94039273
    C     27.09762215     -0.49289779     -0.09059991      3.94037439
    C     28.33096462      0.21622239     -0.09057703      3.94036234
    C     28.33311575      1.63890488     -0.09062899      3.94041814
    C     27.10230264      2.35252635     -0.09066745      3.94038516
    C     29.56458793     -0.49933039     -0.09048781      4.06561146
    C     30.62674002     -1.11861953     -0.09039229      3.99330889
    C     31.81054404     -1.80593453     -0.09031638      3.99924436
    C     32.87992663     -2.42627334     -0.09025963      4.00144751
    C     34.06111351     -3.11023157     -0.09022376      4.00146704
    C     35.13137805     -3.72904841     -0.09021141      3.99922639
    C     36.31636914     -4.41423777     -0.09022639      3.99333998
    C     37.38112560     -5.02897372     -0.09027971      4.06559209
    C     29.56922809      2.34976571     -0.09063977      4.06558580
    C     30.63489785      2.96281652     -0.09064726      3.99334457
    C     31.82105372      3.64578491     -0.09065815      3.99922932
    C     32.89185317      4.26357574     -0.09067209      4.00146657
    C     34.07449771      4.94477656     -0.09068272      4.00145814
    C     35.14588527      5.56152059     -0.09068828      3.99923452
    C     36.33255810      6.24354822     -0.09068734      3.99334271
    C     37.39899302      6.85524017     -0.09067513      4.06558537
    C     27.10436862      3.77865122     -0.09076398      4.06560645
    C     27.10280740      5.00815195     -0.09085609      3.99331906
    C     27.10408698      6.37701684     -0.09092912      3.99923443
    C     27.10619884      7.61331355     -0.09098111      4.00145799
    C     27.10927235      8.97824239     -0.09101625      4.00145252
    C     27.11269523     10.21454777     -0.09103105      3.99924126
    C     27.11568762     11.58343799     -0.09102794      3.99331491
    C     27.11753375     12.81296886     -0.09099513      4.06561562
    C     25.89148492     16.37551445     -0.09102402      3.94035165
    C     25.88941451     14.95281690     -0.09101399      3.94040299
    C     27.12014404     14.23911473     -0.09100176      3.94036889
    C     28.35343582     14.94833916     -0.09097570      3.94036253
    C     28.35556396     16.37104369     -0.09102292      3.94043291
    C     27.12477675     17.08470908     -0.09106141      3.94036893
    C     29.58712972     14.23293662     -0.09088253      4.06560843
    C     30.64942969     13.61392301     -0.09078649      3.99331214
    C     31.83329684     12.92673274     -0.09071070      3.99924227
    C     32.90267586     12.30639416     -0.09065377      4.00144972
    C     34.08385931     11.62244684     -0.09061831      4.00146397
    C     35.15410990     11.00360882     -0.09060612      3.99922995
    C     36.33904554     10.31832087     -0.09062146      3.99333467
    C     37.40359204      9.70321901     -0.09067355      4.06559423
    C     29.59166811     17.08194965     -0.09103240      4.06557909
    C     30.65720200     17.69525246     -0.09104224      3.99335276
    C     31.84331995     18.37830425     -0.09105313      3.99921865
    C     32.91409256     18.99614612     -0.09106683      4.00147486
    C     34.09675379     19.67735886     -0.09107568      4.00144579
    C     35.16820801     20.29401718     -0.09108254      3.99924768
    C     36.35505238     20.97584940     -0.09108295      3.99332190
    C     37.42188795     21.58689694     -0.09107748      4.06560289
    C     27.12688645     18.51080570     -0.09115659      4.06561094
    C     27.12539303     19.74029905     -0.09125043      3.99331360
    C     27.12670997     21.10913004     -0.09132433      3.99924233
    C     27.12881151     22.34541111     -0.09137535      4.00145040
    C     27.13187173     23.71029418     -0.09141063      4.00146197
    C     27.13529788     24.94657426     -0.09142519      3.99923111
    C     27.13839606     26.31540643     -0.09142396      3.99333089
    C     27.14068822     27.54490177     -0.09139744      4.06560099
    C     25.91465369     31.10715789     -0.09140543      3.94034972
    C     25.91242122     29.68447298     -0.09140354      3.94038139
    C     27.14328106     28.97098242     -0.09139150      3.94039247
    C     28.37666721     29.68010877     -0.09135597      3.94036867
    C     28.37897100     31.10281495     -0.09140056      3.94041223
    C     27.14803423     31.81625207     -0.09143894      3.94038688
    C     29.61027783     28.96456967     -0.09127315      4.06560792
    C     30.67281072     28.34595191     -0.09118121      3.99331367
    C     31.85672774     27.65886443     -0.09110700      3.99924045
    C     32.92619807     27.03869420     -0.09104831      4.00145082
    C     34.10736329     26.35471722     -0.09101250      4.00146373
    C     35.17759849     25.73585745     -0.09100213      3.99923009
    C     36.36243060     25.05038423     -0.09101539      3.99333532
    C     37.42685418     24.43505792     -0.09106498      4.06559526
    C     29.61506219     31.81394885     -0.09143263      4.06559771
    C     30.68022184     32.42799411     -0.09150829      3.99333332
    C     31.86619715     33.11145649     -0.09151322      3.99923069
    C     32.93687743     33.72948912     -0.09144749      4.00146100
    C     34.11977013     34.41038227     -0.09140459      4.00145398
    C     35.19170849     35.02622527     -0.09138475      3.99923842
    C     36.37879549     35.70769354     -0.09140054      3.99332942
    C     37.44552007     36.31895602     -0.09145360      4.06559657
    C     27.14995309     33.24229296     -0.09155677      4.06559828
    C     27.14805661     34.47175161     -0.09171761      3.99332803
    C     27.14913194     35.84053196     -0.09178459      3.99923285
    C     27.15105653     37.07679568     -0.09175663      4.00146064
    C     27.15436491     38.44164256     -0.09173791      4.00145352
    C     27.15840021     39.67790739     -0.09172718      3.99924088
    C     27.16181165     41.04672015     -0.09174067      3.99332243
    C     27.16383408     42.27619900     -0.09177316      4.06561066
    C     38.59161279    -20.47484799     -0.08992106      3.94037780
    C     38.58868920    -21.89749989     -0.08988032      3.94036464
    C     39.81921777    -22.61136323     -0.08987491      3.94036660
    C     41.05263568    -21.90245017     -0.08988138      3.94038540
    C     41.05567104    -20.47978765     -0.09003613      3.94040606
    C     39.82504669    -19.76594415     -0.09007251      3.94037795
    C     42.28578446    -22.61845338     -0.08979050      4.06558623
    C     43.34758329    -23.23820435     -0.08968609      3.99334081
    C     44.53105999    -23.92579657     -0.08959608      3.99922925
    C     45.60032918    -24.54616648     -0.08951553      4.00145825
    C     46.78170962    -25.22952977     -0.08951713      4.00145827
    C     47.85266180    -25.84703027     -0.08960638      3.99923651
    C     49.03796504    -26.53149325     -0.08960112      3.99332654
    C     50.10294418    -27.14573493     -0.08952130      4.06560556
    C     42.29226589    -19.76946041     -0.08994186      4.06561116
    C     43.35833475    -19.15695510     -0.08983088      3.99332438
    C     44.54483300    -18.47431645     -0.08983301      3.99923895
    C     45.61574603    -17.85661352     -0.08991853      4.00145863
    C     46.79840956    -17.17524570     -0.09000034      4.00145762
    C     47.86956883    -16.55802988     -0.09004516      3.99922972
    C     49.05605819    -15.87547849     -0.09000517      3.99333192
    C     50.12231624    -15.26330384     -0.08987329      4.06559412
    C     39.82728243    -18.33993547     -0.09007624      4.06559320
    C     39.82591113    -17.11047075     -0.09010068      3.99332637
    C     39.82712011    -15.74167878     -0.09015197      3.99923050
    C     39.82886303    -14.50540822     -0.09019665      4.00145916
    C     39.83184537    -13.14052013     -0.09026593      4.00145429
    C     39.83548560    -11.90423875     -0.09032211      3.99923854
    C     39.83865730    -10.53540648     -0.09032984      3.99332379
    C     39.84107310     -9.30592083     -0.09027279      4.06560215
    C     38.61504833     -5.74378943     -0.09029904      3.94037674
    C     38.61261108     -7.16644060     -0.09028498      3.94036662
    C     39.84338666     -7.87987940     -0.09027974      3.94036004
    C     41.07656402     -7.17055032     -0.09025984      3.94038790
    C     41.07905394     -5.74789068     -0.09031039      3.94040804
    C     39.84822219     -5.03439653     -0.09034671      3.94037804
    C     42.30998589     -7.88612340     -0.09014981      4.06559039
    C     43.37173288     -8.50598093     -0.08999918      3.99333727
    C     44.55523707     -9.19352417     -0.08993504      3.99923064
    C     45.62444022     -9.81400909     -0.08995919      4.00145691
    C     46.80566969    -10.49762596     -0.08996112      4.00145912
    C     47.87626655    -11.11573954     -0.08994521      3.99923576
    C     49.06143159    -11.80044516     -0.08991236      3.99332922
    C     50.12620391    -12.41503670     -0.08987226      4.06560448
    C     42.31538766     -5.03720091     -0.09030099      4.06560834
    C     43.38120508     -4.42431895     -0.09025502      3.99332619
    C     44.56751483     -3.74146837     -0.09027698      3.99924140
    C     45.63841224     -3.12381452     -0.09037211      4.00145570
    C     46.82100418     -2.44246273     -0.09041871      4.00146350
    C     47.89214974     -1.82530207     -0.09042165      3.99922232
    C     49.07861872     -1.14288417     -0.09037208      3.99334675
    C     50.14496758     -0.53093961     -0.09026739      4.06558147
    C     39.85008100     -3.60831014     -0.09043498      4.06559981
    C     39.84836355     -2.37881751     -0.09052434      3.99332144
    C     39.84944476     -1.00995851     -0.09059648      3.99923069
    C     39.85146562      0.22633980     -0.09064991      4.00145969
    C     39.85451503      1.59128312     -0.09068554      4.00145048
    C     39.85815261      2.82759318     -0.09069799      3.99924225
    C     39.86126276      4.19648272     -0.09069656      3.99331204
    C     39.86353088      5.42601133     -0.09066653      4.06561247
    C     38.63754127      8.98841188     -0.09069657      3.94037629
    C     38.63523699      7.56576386     -0.09068610      3.94037594
    C     39.86590640      6.85213299     -0.09068114      3.94035439
    C     41.09903258      7.56156754     -0.09065723      3.94038840
    C     41.10150361      8.98424863     -0.09070507      3.94042211
    C     39.87069881      9.69778388     -0.09074126      3.94036175
    C     42.33252660      6.84614465     -0.09054307      4.06558767
    C     43.39442349      6.22656138     -0.09039395      3.99334139