   30
Geometry Step: 0
    C      0.35917100      1.68697100     -0.09087500      3.94034757
    C      0.35636600      0.26432800     -0.09087500      3.94036758
    C      1.58661100     -0.45006400     -0.09087100      3.94033810
    C      2.82023100      0.25861300     -0.09083800      3.94040967
    C      2.82297000      1.68136600     -0.09088100      3.94045879
    C      1.59261800      2.39585500     -0.09091200      3.94036422
    C      4.05343800     -0.45764500     -0.09074800      4.06561435
    C      5.11378100     -1.07998700     -0.09059900      3.99330892
    C      6.29640200     -1.76926200     -0.09047800      3.99923906
    C      7.36466000     -2.39151200     -0.09037300      4.00145119
    C      8.54562800     -3.07576200     -0.09034000      4.00145463
    C      9.61659700     -3.69334600     -0.09038100      3.99923650
    C     10.80269000     -4.37663400     -0.09043400      3.99332350
    C     11.87009200     -4.98675700     -0.09052200      4.06559896
    C      4.05905000      2.39224900     -0.09090000      4.06558631
    C      5.12266900      3.00881100     -0.09093100      3.99335605
    C      6.30799500      3.69316900     -0.09095600      3.99922804
    C      7.37835400      4.31166500     -0.09097600      4.00146957
    C      8.56129900      4.99225600     -0.09098100      4.00145841
    C      9.63369500      5.60722900     -0.09097100      3.99923978
    C     10.82093900      6.28824700     -0.09096000      3.99334699
    C     11.88764700      6.89947900     -0.09094400      4.06559088
    C      1.59479600      3.82209500     -0.09100400      4.06562750
    C      1.59025200      5.05162800     -0.09115300      3.99329165
    C      1.58851600      6.42056500     -0.09128400      3.99924398
    C      1.58538900      7.65689300     -0.09140900      4.00144659
    C      1.58609800      9.02186200     -0.09145500      4.00145253
    C      1.58900800     10.25817800     -0.09142400      3.99923308
    C      1.59453400     11.62706700     -0.09137500      3.99331617
    C      1.60459800     12.85655200     -0.09128700      4.06559943
