  120
Geometry Step: 0
    C      0.35917100      1.68697100     -0.09087500      3.94034949
    C      0.35636600      0.26432800     -0.09087500      3.94036744
    C      1.58661100     -0.45006400     -0.09087100      3.94033874
    C      2.82023100      0.25861300     -0.09083800      3.94040974
    C      2.82297000      1.68136600     -0.09088100      3.94045921
    C      1.59261800      2.39585500     -0.09091200      3.94036452
    C      4.05343800     -0.45764500     -0.09074800      4.06561322
    C      5.11378100     -1.07998700     -0.09059900      3.99330919
    C      6.29640200     -1.76926200     -0.09047800      3.99923880
    C      7.36466000     -2.39151200     -0.09037300      4.00145203
    C      8.54562800     -3.07576200     -0.09034000      4.00145536
    C      9.61659700     -3.69334600     -0.09038100      3.99923657
    C     10.80269000     -4.37663400     -0.09043400      3.99332401
    C     11.87009200     -4.98675700     -0.09052200      4.06559788
    C      4.05905000      2.39224900     -0.09090000      4.06558471
    C      5.12266900      3.00881100     -0.09093100      3.99335667
    C      6.30799500      3.69316900     -0.09095600      3.99922740
    C      7.37835400      4.31166500     -0.09097600      4.00147077
    C      8.56129900      4.99225600     -0.09098100      4.00145884
    C      9.63369500      5.60722900     -0.09097100      3.99924022
    C     10.82093900      6.28824700     -0.09096000      3.99334730
    C     11.88764700      6.89947900     -0.09094400      4.06559014
    C      1.59479600      3.82209500     -0.09100400      4.06562542
    C      1.59025200      5.05162800     -0.09115300      3.99329239
    C      1.58851600      6.42056500     -0.09128400      3.99924341
    C      1.58538900      7.65689300     -0.09140900      4.00144780
    C      1.58609800      9.02186200     -0.09145500      4.00145293
    C      1.58900800     10.25817800     -0.09142400      3.99923344
    C      1.59453400     11.62706700     -0.09137500      3.99331627
    C      1.60459800     12.85655200     -0.09128700      4.06559916
    C      0.38179000     16.41967800     -0.09127000      3.94034929
    C      0.37898600     14.99703500     -0.09126900      3.94036681
    C      1.60923100     14.28264300     -0.09126500      3.94033885
    C      2.84285100     14.99132100     -0.09123200      3.94040885
    C      2.84559000     16.41407200     -0.09127500      3.94045906
    C      1.61523800     17.12856300     -0.09130600      3.94036483
    C      4.07605800     14.27506300     -0.09114200      4.06561322
    C      5.13640100     13.65272000     -0.09099300      3.99330914
    C      6.31902200     12.96344500     -0.09087200      3.99923884
    C      7.38728000     12.34119400     -0.09076700      4.00145198
    C      8.56824700     11.65694500     -0.09073500      4.00145511
    C      9.63921600     11.03936100     -0.09077500      3.99923670
    C     10.82530900     10.35607300     -0.09082900      3.99332398
    C     11.89271200      9.74595100     -0.09091700      4.06559803
    C      4.08167000     17.12495600     -0.09129400      4.06558486
    C      5.14528800     17.74151800     -0.09132600      3.99335666
    C      6.33061500     18.42587700     -0.09135100      3.99922755
    C      7.40097300     19.04437300     -0.09137000      4.00147061
    C      8.58391900     19.72496200     -0.09137600      4.00145884
    C      9.65631400     20.33993500     -0.09136600      3.99924005
    C     10.84355800     21.02095400     -0.09135500      3.99334850
    C     11.91026600     21.63218700     -0.09133900      4.06558858
    C      1.61741600     18.55480200     -0.09139900      4.06562490
    C      1.61287200     19.78433400     -0.09154800      3.99329243
    C      1.61113500     21.15327300     -0.09167900      3.99924375
    C      1.60800800     22.38960100     -0.09180300      4.00144758
    C      1.60871800     23.75457000     -0.09185000      4.00145299
    C      1.61162700     24.99088500     -0.09181900      3.99923294
    C      1.61715400     26.35977400     -0.09177000      3.99331871
    C      1.62721800     27.58926000     -0.09168200      4.06559570
    C     13.10452500     -5.70076400     -0.09054400      3.94034838
    C     13.10172000     -7.12340700     -0.09054400      3.94036832
    C     14.33196500     -7.83779800     -0.09053900      3.94033786
    C     15.56558500     -7.12912100     -0.09050700      3.94041026
    C     15.56832400     -5.70636800     -0.09054900      3.94045863
    C     14.33797200     -4.99187900     -0.09058000      3.94036468
    C     16.79879200     -7.84537900     -0.09041600      4.06561317
    C     17.85913500     -8.46772100     -0.09026700      3.99330930
    C     19.04175600     -9.15699700     -0.09014600      3.99923894
    C     20.11001400     -9.77924700     -0.09004200      4.00145190
    C     21.29098100    -10.46349600     -0.09000900      4.00145527
    C     22.36195000    -11.08108000     -0.09004900      3.99923665
    C     23.54804200    -11.76436800     -0.09010300      3.99332293
    C     24.61544600    -12.37449100     -0.09019100      4.06560019
    C     16.80440300     -4.99548500     -0.09056800      4.06558464
    C     17.86802300     -4.37892400     -0.09060000      3.99335665
    C     19.05334900     -3.69456600     -0.09062500      3.99922744
    C     20.12370700     -3.07606900     -0.09064400      4.00147059
    C     21.30665200     -2.39547900     -0.09065000      4.00145888
    C     22.37904700     -1.78050500     -0.09064000      3.99923992
    C     23.56629200     -1.09948800     -0.09062900      3.99335011
    C     24.63299900     -0.48825600     -0.09061300      4.06558542
    C     14.34015000     -3.56563900     -0.09067300      4.06562595
    C     14.33560600     -2.33610700     -0.09082200      3.99329215
    C     14.33387000     -0.96716900     -0.09095300      3.99924385
    C     14.33074200      0.26915900     -0.09107700      4.00144753
    C     14.33145100      1.63412800     -0.09112400      4.00145309
    C     14.33436100      2.87044300     -0.09109300      3.99923300
    C     14.33988800      4.23933200     -0.09104400      3.99331661
    C     14.34995200      5.46881800     -0.09095600      4.06559856
    C     13.12714400      9.03194300     -0.09093900      3.94034798
    C     13.12433900      7.60930100     -0.09093800      3.94036765
    C     14.35458500      6.89490900     -0.09093400      3.94033853
    C     15.58820500      7.60358600     -0.09090100      3.94040931
    C     15.59094300      9.02633800     -0.09094400      3.94045867
    C     14.36059200      9.74082900     -0.09097500      3.94036471
    C     16.82141100      6.88732800     -0.09081100      4.06561282
    C     17.88175400      6.26498600     -0.09066200      3.99330935
    C     19.06437500      5.57571000     -0.09054100      3.99923880
    C     20.13263300      4.95346000     -0.09043600      4.00145193
    C     21.31360100      4.26921100     -0.09040300      4.00145536
    C     22.38457100      3.65162700     -0.09044400      3.99923681
    C     23.57066300      2.96833900     -0.09049700      3.99332259
    C     24.63806500      2.35821600     -0.09058500      4.06560011
    C     16.82702300      9.73722200     -0.09096300      4.06558510
    C     17.89064200     10.35378400     -0.09099400      3.99335639
    C     19.07596800     11.03814200     -0.09101900      3.99922756
    C     20.14632800     11.65663800     -0.09103900      4.00147070
    C     21.32927300     12.33722800     -0.09104400      4.00145885
    C     22.40166900     12.95220100     -0.09103500      3.99923976
    C     23.58891300     13.63322000     -0.09102300      3.99335166
    C     24.65562100     14.24445200     -0.09100800      4.06558309
    C     14.36277000     11.16706800     -0.09106700      4.06562562
    C     14.35822500     12.39660000     -0.09121600      3.99329210
    C     14.35648900     13.76553800     -0.09134700      3.99924374
    C     14.35336200     15.00186600     -0.09147200      4.00144782
    C     14.35407200     16.36683700     -0.09151800      4.00145313
    C     14.35698100     17.60314900     -0.09148700      3.99923203
    C     14.36250800     18.97203800     -0.09143900      3.99331948
    C     14.37257200     20.20152700     -0.09135100      4.06559505
