  180
Geometry Step: 0
    C     -0.77591500      4.35190000     -0.41856000      3.94038923
    C     -0.73065600      2.92477000     -0.42151900      3.94030067
    C      0.52652100      2.25037000     -0.47873900      3.94027543
    C      1.73852000      3.00323000     -0.52880000      3.94030949
    C      1.69343000      4.43026000     -0.52423600      3.94029085
    C      0.43607600      5.10479000     -0.47079000      3.94033466
    C      0.57174900      0.82073400     -0.47978900      4.06731444
    C      0.60856300     -0.40960800     -0.48029400      3.99318975
    C      0.64812000     -1.77885000     -0.48641600      4.00133018
    C      0.68058700     -3.01636000     -0.49514000      4.00161985
    C      0.71695600     -4.38047000     -0.51460000      4.00431948
    C      0.74756200     -5.61956000     -0.53796800      3.99971527
    C      0.78417900     -6.98328000     -0.57752600      4.00712662
    C      0.81584800     -8.21989000     -0.62095100      3.99675138
    C      0.85830000     -9.58776000     -0.68747100      3.99974683
    C      0.89706300    -10.81590000     -0.75496100      4.06716769
    C      0.95321000    -12.24200000     -0.86051500      3.93207464
    C     -1.94357000      2.16949000     -0.35679600      4.06732486
    C     -2.98237000      1.51298000     -0.28658500      3.99318943
    C     -4.13887000      0.78364700     -0.20348500      4.00133744
    C     -5.18105000      0.12093900     -0.11865400      4.00161459
    C     -6.33189000     -0.60615800     -0.02226000      4.00432675
    C     -7.37669000     -1.26699000      0.06985170      3.99970980
    C     -8.52956000     -1.98976000      0.17498300      4.00714221
    C     -9.57614000     -2.64338000      0.27231400      3.99672648
    C    -10.73690000     -3.36203000      0.38762400      3.99978049
    C    -11.78100000     -4.00487000      0.49320200      4.06713918
    C    -12.99540000     -4.74931000      0.63066700      3.93210428
    C      2.99845000      2.32775000     -0.57116600      4.06731997
    C      4.08306000      1.74628000     -0.59252800      3.99319358
    C      5.29113000      1.10089000     -0.60339900      4.00134359
    C      6.38421000      0.51991800     -0.59748100      4.00160701
    C      7.58892000     -0.12067700     -0.57577300      4.00433962
    C      8.68405000     -0.70044700     -0.54064000      3.99969597
    C      9.88690000     -1.34279000     -0.48714500      4.00715578
    C     10.97690000     -1.92597000     -0.42548900      3.99672085
    C     12.17890000     -2.57808000     -0.34280500      3.99978909
    C     13.25640000     -3.16654000     -0.25908300      4.06711417
    C     14.50500000     -3.85616000     -0.14480500      3.93205071
    C      2.90867000      5.18370000     -0.55975100      4.06733788
    C      3.95591000      5.83040000     -0.57095300      3.99317650
    C      5.12128000      6.55023000     -0.57064600      4.00135620
    C      6.17490000      7.19985000     -0.55096300      4.00159400
    C      7.33627000      7.91575000     -0.51876900      4.00434890
    C      8.39135000      8.56496000     -0.47291400      3.99968967
    C      9.55190000      9.28095000     -0.41819900      4.00715792
    C     10.60360000      9.93073000     -0.35767500      3.99670504
    C     11.76680000     10.65190000     -0.29417100      3.99981458
    C     12.81040000     11.30130000     -0.23258600      4.06709792
    C     14.02460000     12.05620000     -0.17381500      3.93208128
    C      0.39300900      6.53447000     -0.45838900      4.06733299
    C      0.36653300      7.76493000     -0.43772500      3.99317760
    C      0.33363400      9.13408000     -0.40835300      4.00134687
    C      0.30734300     10.37130000     -0.37270800      4.00161979
    C      0.27312800     11.73490000     -0.32817000      4.00432599
    C      0.24080200     12.97320000     -0.28053900      3.99969868
    C      0.19903000     14.33620000     -0.22382900      4.00715098
    C      0.15648100     15.57190000     -0.16639100      3.99672872
    C      0.10523200     16.93960000     -0.10101500      3.99978103
    C      0.05389180     18.16750000     -0.03804130      4.06712306
    C     -0.00245907     19.59590000      0.03055000      3.93207362
    C     -2.03563000      5.02612000     -0.35357800      4.06731609
    C     -3.12242000      5.60020000     -0.28773000      3.99320609
    C     -4.33067000      6.24085000     -0.21050800      4.00133619
    C     -5.42311000      6.81796000     -0.13310700      4.00162469
    C     -6.62557000      7.45726000     -0.04530380      4.00433368
    C     -7.71665000      8.03953000      0.03982970      3.99971230
    C     -8.91669000      8.68267000      0.13336500      4.00714713
    C    -10.00380000      9.26794000      0.22030900      3.99671872
    C    -11.20630000      9.91756000      0.31590900      3.99981675
    C    -12.28490000     10.50370000      0.40294200      4.06708866
    C    -13.54030000     11.18320000      0.50197500      3.93206589
    C    -12.97050000     -6.17837000      0.62788300      3.90785931
    C    -14.17810000     -6.89538000      0.77439600      4.09631287
    C    -15.39200000     -6.21806000      0.92121400      4.07125713
    C    -15.43170000     -4.82085000      0.92213200      4.09629524
    C    -14.24450000     -4.07020000      0.77663800      3.90784727
    C      2.21410000    -12.90660000     -0.96800800      3.90780654
    C     -0.24930200    -13.01450000     -0.86691700      3.90788064
    C     -0.17300600    -14.41910000     -0.99043800      4.09632983
    C      1.06667000    -15.05520000     -1.10247000      4.07127625
    C      2.25104000    -14.31290000     -1.08969000      4.09631152
    C     14.54130000     -5.28496000     -0.14375300      3.90782544
    C     15.78120000     -5.94891000     -0.01834790      4.09633648
    C     16.96740000     -5.21946000      0.10271400      4.07126419
    C     16.94710000     -3.82177000      0.09948210      4.09636955
    C     15.72610000     -3.12333000     -0.02378960      3.90786032
    C     -1.26330000     20.26690000      0.08125740      3.90784444
    C     -1.29861000     21.67710000      0.14492900      4.09630527
    C     -0.11255200     22.41660000      0.15967400      4.07127857
    C      1.12770000     21.77340000      0.11338800      4.09638285
    C      1.20228000     20.36490000      0.04921460      3.90781246
    C    -13.58980000     12.61160000      0.49891500      3.90785325
    C    -14.83820000     13.26440000      0.59597300      4.09636190
    C    -16.01990000     12.52430000      0.69552100      4.07126946
    C    -15.98620000     11.12690000      0.70140200      4.09636257
    C    -14.75650000     10.43950000      0.60604900      3.90784114
    C     13.98540000     13.48470000     -0.14826300      3.90782888
    C     15.19410000     14.21300000     -0.10026400      4.09632491
    C     16.42290000     13.54720000     -0.07478360      4.07124228
    C     16.47600000     12.15060000     -0.09291520      4.09630973
    C     15.28800000     11.38890000     -0.14071300      3.90784542
    H     15.80950000     -7.03774000     -0.01530250      0.91017623
    H      1.11037000    -16.13980000     -1.19843000      0.91649270
    H      3.21153000    -14.81960000     -1.17397000      0.91017278
    H     17.43910000     11.64240000     -0.06910750      0.91018304
    H     17.91680000     -5.74532000      0.20015800      0.91652163
    H     17.87800000     -3.26409000      0.19329300      0.91017328
    H     -1.08908000    -15.00830000     -0.99813800      0.91019566
    H    -16.38350000     -4.30369000      1.03584000      0.91015379
    H    -14.15970000     -7.98442000      0.77329500      0.91018282
    H     -0.15524600     23.50430000      0.20869200      0.91649113
    H    -16.91330000     10.56080000      0.78067600      0.91016740
    H     -2.25925000     22.18900000      0.18331800      0.91018938
    H    -16.31600000     -6.78436000      1.03523000      0.91649931
    H    -14.87670000     14.35290000      0.59391300      0.91017202
    H    -16.97600000     13.04160000      0.77038800      0.91650726
    C     12.72600000     14.17270000     -0.16473100      4.07444268
    H     15.16500000     15.30170000     -0.08212540      0.91018286
    H     17.34790000     14.12220000     -0.03788980      0.91651994
    C    -14.29300000     -2.63587000      0.77337000      4.07433887
    C    -14.33760000     -1.40685000      0.76267300      4.00221492
    C    -14.38550000     -0.03590260      0.74929800      3.99995724
    C    -14.43080000      1.20062000      0.73279800      4.00666979
    C    -14.48220000      2.56553000      0.71341700      4.00324567
    C    -14.58540000      5.16855000      0.67064200      4.00662328
    C    -14.63670000      6.40477000      0.64980200      3.99998712
    C    -14.68440000      7.77566000      0.63160100      4.00207607
    C    -14.72520000      9.00477000      0.61674500      4.07446911
    C    -14.53220000      3.80375000      0.69243000      4.00326585
    C    -11.72700000     -6.87885000      0.47729300      4.07437895
    C    -10.65940000     -7.47514000      0.34551800      4.00218042
    C     -9.46570000     -8.13520000      0.19903600      3.99995843
    C     -8.38669000     -8.72612000      0.06513840      4.00666171
    C     -7.19350000     -9.37493000     -0.08131700      4.00324900
    C     -6.10919000     -9.95997000     -0.21613400      4.00326118
    C     -4.91072000    -10.59970000     -0.35945400      4.00664558
    C     -3.82316000    -11.17570000     -0.48924800      3.99998103
    C     -2.61263000    -11.80700000     -0.62420100      4.00214816
    C     -1.52414000    -12.36680000     -0.74412300      4.07441377
    C      3.43377000    -12.15050000     -0.94667400      4.07438660
    C      4.47787000    -11.50140000     -0.91222800      4.00215721
    C      5.64129000    -10.77580000     -0.86617200      3.99997867
    C      6.68968000    -10.12050000     -0.81202400      4.00664259
    C      7.84844000     -9.40038000     -0.74252400      4.00325323
    C      8.90041000     -8.74927000     -0.66764900      4.00324453
    C     10.06120000     -8.03485000     -0.57626900      4.00664829
    C     12.28080000     -6.67795000     -0.37345200      4.00211407
    C     11.11460000     -7.39210000     -0.48323300      3.99996355
    C     13.32590000     -6.03826000     -0.26720500      4.07441917
    C     15.70900000     -1.68830000     -0.02798230      4.07446090
    C     15.68220000     -0.45873900     -0.03712960      4.00208949
    C     15.64910000      0.91265100     -0.04848490      3.99998084
    C     15.61150000      2.14946000     -0.06282020      4.00663217
    C     15.57040000      3.51476000     -0.07838750      4.00326186
    C     15.53000000      4.75338000     -0.09584130      4.00324804
    C     15.48530000      6.11855000     -0.11221100      4.00665571
    C     15.44400000      7.35519000     -0.12971400      3.99996618
    C     15.39510000      8.72611000     -0.14002800      4.00216284
    C     15.34800000      9.95504000     -0.14920200      4.07440161
    C    -12.37890000     13.37590000      0.40314300      4.07438887
    C    -11.33730000     14.02590000      0.33106700      4.00214821
    C    -10.17380000     14.74930000      0.25927200      3.99997972
    C     -9.12198000     15.39900000      0.20537200      4.00664083
    C     -7.96132000     16.11770000      0.15634700      4.00325848
    C     -6.90780000     16.76970000      0.12272200      4.00325307
    C     -5.74725000     17.48980000      0.09548960      4.00666671
    C     -4.69651000     18.14330000      0.07994990      3.99996076
    C     -3.53096000     18.86680000      0.07223890      4.00219152
    C     -2.48456000     19.51310000      0.07170450      4.07436683
    C      2.47704000     19.70720000      0.00543241      4.07451793
    C      3.56138000     19.12780000     -0.02741360      4.00204336
    C      4.77004000     18.47980000     -0.06165920      3.99998913
    C      5.85558000     17.88650000     -0.08920510      4.00660590
    C      7.05582000     17.23480000     -0.11494100      4.00326864
    C      8.14397000     16.64180000     -0.13465700      4.00323940
    C      9.34544000     15.99210000     -0.15009900      4.00664428
    C     10.43550000     15.40650000     -0.16085000      3.99996887
    C     11.64320000     14.75590000     -0.16401100      4.00211356
    H      2.04534000     22.36000000      0.12708000      0.91017295
