|===============================================================================
|
|  DFTB+ release 22.2
|
|  Copyright (C) 2006 - 2022  DFTB+ developers group
|
|===============================================================================
|
|  When publishing results obtained with DFTB+, please cite the following
|  reference:
|
|  * DFTB+, a software package for efficient approximate density functional
|    theory based atomistic simulations, J. Chem. Phys. 152, 124101 (2020).
|    [doi: 10.1063/1.5143190]
|
|  You should also cite additional publications crediting the parametrization
|  data you use. Please consult the documentation of the SK-files for the
|  references.
|
|===============================================================================

Reading input file 'dftb_in.hsd'
Parser version: 12

--------------------------------------------------------------------------------
Reading SK-files:
/home/usr/bin/dftb_plus/parameters/slako/3ob/3ob-3-1/C-C.skf
/home/usr/bin/dftb_plus/parameters/slako/3ob/3ob-3-1/C-H.skf
/home/usr/bin/dftb_plus/parameters/slako/3ob/3ob-3-1/H-H.skf
Done.


Processed input in HSD format written to 'dftb_pin.hsd'

Starting initialization...
--------------------------------------------------------------------------------
Chosen random seed:          292372579
Mode:                        Static calculation
Self consistent charges:     Yes
SCC-tolerance:                 0.100000E-04
Max. scc iterations:                   1000
Shell resolved Hubbard:      Yes
Spin polarisation:           No
Nr. of up electrons:           333.000000
Nr. of down electrons:         333.000000
Periodic boundaries:         No
Electronic solver:           Relatively robust
Mixer:                       Simple mixer
Mixing parameter:                  0.050000
Maximal SCC-cycles:                    1000
Electronic temperature:              0.100000E-07 H      0.272114E-06 eV
Initial charges:             Set automatically (system chrg:   0.000E+00)
Included shells:             C:  s, p
                             H:  s
Using Lennard-Jones dispersion corrections
Extra options:
                             Mulliken analysis

--------------------------------------------------------------------------------

***  Geometry step: 0

 iSCC Total electronic   Diff electronic      SCC error    
    1    0.00000000E+00    0.00000000E+00    0.13469423E+00
    2   -0.29044173E+03   -0.29044173E+03    0.11997375E+00
    3   -0.29045557E+03   -0.13834603E-01    0.11026435E+00
    4   -0.29046467E+03   -0.91035112E-02    0.10153831E+00
    5   -0.29047080E+03   -0.61251594E-02    0.93667766E-01
    6   -0.29047501E+03   -0.42152821E-02    0.86545052E-01
    7   -0.29047798E+03   -0.29670551E-02    0.80079125E-01
    8   -0.29048011E+03   -0.21350132E-02    0.74192626E-01
    9   -0.29048168E+03   -0.15690233E-02    0.70026930E-01
   10   -0.29048286E+03   -0.11760162E-02    0.66381650E-01
   11   -0.29048376E+03   -0.89749068E-03    0.62870803E-01
   12   -0.29048445E+03   -0.69613352E-03    0.59499069E-01
   13   -0.29048500E+03   -0.54777639E-03    0.56268861E-01
   14   -0.29048544E+03   -0.43651031E-03    0.53180788E-01
   15   -0.29048579E+03   -0.35168627E-03    0.50234030E-01
   16   -0.29048607E+03   -0.28605300E-03    0.47426647E-01
   17   -0.29048631E+03   -0.23458706E-03    0.44755832E-01
   18   -0.29048650E+03   -0.19374842E-03    0.42218112E-01
   19   -0.29048666E+03   -0.16100049E-03    0.39809521E-01
   20   -0.29048680E+03   -0.13449627E-03    0.37525737E-01
>> Charges saved for restart in charges.dat
   21   -0.29048691E+03   -0.11287026E-03    0.35362191E-01
   22   -0.29048701E+03   -0.95098290E-04    0.33314159E-01
   23   -0.29048709E+03   -0.80401911E-04    0.31376836E-01
   24   -0.29048716E+03   -0.68182024E-04    0.29545397E-01
   25   -0.29048721E+03   -0.57972294E-04    0.27815040E-01
   26   -0.29048726E+03   -0.49405906E-04    0.26181025E-01
   27   -0.29048730E+03   -0.42191565E-04    0.24638706E-01
   28   -0.29048734E+03   -0.36095933E-04    0.23183550E-01
   29   -0.29048737E+03   -0.30930613E-04    0.21811156E-01
   30   -0.29048740E+03   -0.26542408E-04    0.20517265E-01
   31   -0.29048742E+03   -0.22805938E-04    0.19297772E-01
   32   -0.29048744E+03   -0.19617990E-04    0.18148731E-01
   33   -0.29048746E+03   -0.16893151E-04    0.17066355E-01
   34   -0.29048747E+03   -0.14560407E-04    0.16047020E-01
   35   -0.29048748E+03   -0.12560466E-04    0.15087266E-01
   36   -0.29048750E+03   -0.10843629E-04    0.14183791E-01
   37   -0.29048751E+03   -0.93681038E-05    0.13333451E-01
   38   -0.29048751E+03   -0.80986349E-05    0.12533256E-01
   39   -0.29048752E+03   -0.70053987E-05    0.11780364E-01
   40   -0.29048753E+03   -0.60631091E-05    0.11072080E-01
>> Charges saved for restart in charges.dat
   41   -0.29048753E+03   -0.52502751E-05    0.10405847E-01
   42   -0.29048754E+03   -0.45485972E-05    0.97792425E-02
   43   -0.29048754E+03   -0.39424659E-05    0.91899751E-02
   44   -0.29048754E+03   -0.34185438E-05    0.86358753E-02
   45   -0.29048755E+03   -0.29654196E-05    0.81148927E-02
   46   -0.29048755E+03   -0.25733136E-05    0.76250895E-02
   47   -0.29048755E+03   -0.22338396E-05    0.71646359E-02
   48   -0.29048755E+03   -0.19397944E-05    0.67318044E-02
   49   -0.29048755E+03   -0.16849860E-05    0.63249649E-02
   50   -0.29048756E+03   -0.14640874E-05    0.59425798E-02
   51   -0.29048756E+03   -0.12725102E-05    0.55831993E-02
   52   -0.29048756E+03   -0.11063013E-05    0.52454569E-02
   53   -0.29048756E+03   -0.96205139E-06    0.49280647E-02
   54   -0.29048756E+03   -0.83681607E-06    0.46298095E-02
   55   -0.29048756E+03   -0.72805608E-06    0.43495486E-02
   56   -0.29048756E+03   -0.63357481E-06    0.40862059E-02
   57   -0.29048756E+03   -0.55147456E-06    0.38387685E-02
   58   -0.29048756E+03   -0.48011276E-06    0.36062828E-02
   59   -0.29048756E+03   -0.41806902E-06    0.33878575E-02
   60   -0.29048756E+03   -0.36411279E-06    0.31826439E-02
>> Charges saved for restart in charges.dat
   61   -0.29048756E+03   -0.31717883E-06    0.29898447E-02
   62   -0.29048756E+03   -0.27634366E-06    0.28087127E-02
   63   -0.29048756E+03   -0.24080759E-06    0.26385452E-02
   64   -0.29048756E+03   -0.20987534E-06    0.24786810E-02
   65   -0.29048756E+03   -0.18294554E-06    0.23284988E-02
   66   -0.29048756E+03   -0.15949610E-06    0.21874140E-02
   67   -0.29048757E+03   -0.13907254E-06    0.20548773E-02
   68   -0.29048757E+03   -0.12128157E-06    0.19303721E-02
   69   -0.29048757E+03   -0.10578134E-06    0.18134128E-02
   70   -0.29048757E+03   -0.92274490E-07    0.17035430E-02
   71   -0.29048757E+03   -0.80502730E-07    0.16003337E-02
   72   -0.29048757E+03   -0.70241583E-07    0.15033818E-02
   73   -0.29048757E+03   -0.61295736E-07    0.14123082E-02
   74   -0.29048757E+03   -0.53495285E-07    0.13267571E-02
   75   -0.29048757E+03   -0.46693117E-07    0.12463937E-02
   76   -0.29048757E+03   -0.40760483E-07    0.11709036E-02
   77   -0.29048757E+03   -0.35585629E-07    0.10999915E-02
   78   -0.29048757E+03   -0.31070385E-07    0.10333797E-02
   79   -0.29048757E+03   -0.27131307E-07    0.97080760E-03
   80   -0.29048757E+03   -0.23693985E-07    0.91203003E-03
>> Charges saved for restart in charges.dat
   81   -0.29048757E+03   -0.20694074E-07    0.85681686E-03
   82   -0.29048757E+03   -0.18075582E-07    0.80495184E-03
   83   -0.29048757E+03   -0.15790079E-07    0.75623182E-03
   84   -0.29048757E+03   -0.13794704E-07    0.71046596E-03
   85   -0.29048757E+03   -0.12052340E-07    0.66747500E-03
   86   -0.29048757E+03   -0.10531437E-07    0.62709052E-03
   87   -0.29048757E+03   -0.92029495E-08    0.58915433E-03
   88   -0.29048757E+03   -0.80426048E-08    0.55351783E-03
   89   -0.29048757E+03   -0.70292572E-08    0.52004145E-03
   90   -0.29048757E+03   -0.61439209E-08    0.48859407E-03
   91   -0.29048757E+03   -0.53706231E-08    0.45905254E-03
   92   -0.29048757E+03   -0.46953801E-08    0.43130119E-03
   93   -0.29048757E+03   -0.41046064E-08    0.40523135E-03
   94   -0.29048757E+03   -0.35892072E-08    0.38074098E-03
   95   -0.29048757E+03   -0.31381546E-08    0.35773421E-03
   96   -0.29048757E+03   -0.27440592E-08    0.33612101E-03
   97   -0.29048757E+03   -0.23997586E-08    0.31581681E-03
   98   -0.29048757E+03   -0.20990001E-08    0.29674217E-03
   99   -0.29048757E+03   -0.18358151E-08    0.27882249E-03
  100   -0.29048757E+03   -0.16055424E-08    0.26198770E-03
>> Charges saved for restart in charges.dat
  101   -0.29048757E+03   -0.14046577E-08    0.24617197E-03
  102   -0.29048757E+03   -0.12287842E-08    0.23131348E-03
  103   -0.29048757E+03   -0.10750227E-08    0.21735418E-03
  104   -0.29048757E+03   -0.94087227E-09    0.20423952E-03
  105   -0.29048757E+03   -0.82292217E-09    0.19191828E-03
  106   -0.29048757E+03   -0.71992190E-09    0.18034235E-03
  107   -0.29048757E+03   -0.63022298E-09    0.16946654E-03
  108   -0.29048757E+03   -0.55166538E-09    0.15924840E-03
  109   -0.29048757E+03   -0.48277116E-09    0.14964806E-03
  110   -0.29048757E+03   -0.42240345E-09    0.14062809E-03
  111   -0.29048757E+03   -0.36993697E-09    0.13215330E-03
  112   -0.29048757E+03   -0.32378011E-09    0.12419066E-03
  113   -0.29048757E+03   -0.28313707E-09    0.11670915E-03
  114   -0.29048757E+03   -0.24812152E-09    0.10967961E-03
  115   -0.29048757E+03   -0.21725555E-09    0.10307466E-03
  116   -0.29048757E+03   -0.19031177E-09    0.96868608E-04
  117   -0.29048757E+03   -0.16643753E-09    0.91037282E-04
  118   -0.29048757E+03   -0.14603074E-09    0.85557999E-04
  119   -0.29048757E+03   -0.12755663E-09    0.80409449E-04
  120   -0.29048757E+03   -0.11164047E-09    0.75571613E-04
>> Charges saved for restart in charges.dat
  121   -0.29048757E+03   -0.98225428E-10    0.71025689E-04
  122   -0.29048757E+03   -0.85719876E-10    0.66754013E-04
  123   -0.29048757E+03   -0.75090156E-10    0.62739994E-04
  124   -0.29048757E+03   -0.65938366E-10    0.58968049E-04
  125   -0.29048757E+03   -0.57582383E-10    0.55423536E-04
  126   -0.29048757E+03   -0.50818016E-10    0.52092703E-04
  127   -0.29048757E+03   -0.44053650E-10    0.48962633E-04
  128   -0.29048757E+03   -0.38596681E-10    0.46021190E-04
  129   -0.29048757E+03   -0.34162895E-10    0.43256974E-04
  130   -0.29048757E+03   -0.29615421E-10    0.40659276E-04
  131   -0.29048757E+03   -0.26147973E-10    0.38218036E-04
  132   -0.29048757E+03   -0.22794211E-10    0.35923802E-04
  133   -0.29048757E+03   -0.20122570E-10    0.33767698E-04
  134   -0.29048757E+03   -0.17848834E-10    0.31741382E-04
  135   -0.29048757E+03   -0.15347723E-10    0.29837018E-04
  136   -0.29048757E+03   -0.13415047E-10    0.28047245E-04
  137   -0.29048757E+03   -0.11937118E-10    0.26365149E-04
  138   -0.29048757E+03   -0.10118129E-10    0.24784231E-04
  139   -0.29048757E+03   -0.91517904E-11    0.23298387E-04
  140   -0.29048757E+03   -0.79012352E-11    0.21901884E-04
>> Charges saved for restart in charges.dat
  141   -0.29048757E+03   -0.73328010E-11    0.20589334E-04
  142   -0.29048757E+03   -0.59685590E-11    0.19355702E-04
  143   -0.29048757E+03   -0.54001248E-11    0.18196205E-04
  144   -0.29048757E+03   -0.47180038E-11    0.17106372E-04
  145   -0.29048757E+03   -0.39790393E-11    0.16082003E-04
  146   -0.29048757E+03   -0.39221959E-11    0.15119155E-04
  147   -0.29048757E+03   -0.30127012E-11    0.14214121E-04
  148   -0.29048757E+03   -0.26716407E-11    0.13363421E-04
  149   -0.29048757E+03   -0.26147973E-11    0.12563783E-04
  150   -0.29048757E+03   -0.23305802E-11    0.11812131E-04
  151   -0.29048757E+03   -0.14779289E-11    0.11105580E-04
  152   -0.29048757E+03   -0.18189894E-11    0.10441413E-04
  153   -0.29048757E+03   -0.14210855E-11    0.98170814E-05
>> Charges saved for restart in charges.dat

Total Energy:                     -279.5432943538 H        -7606.7601 eV
Extrapolated to 0K:               -279.5432943538 H        -7606.7601 eV
Total Mermin free energy:         -279.5432943538 H        -7606.7601 eV
Force related energy:             -279.5432943538 H        -7606.7601 eV


--------------------------------------------------------------------------------
DFTB+ running times                          cpu [s]             wall clock [s]
--------------------------------------------------------------------------------
Global initialisation                  +       0.00 (  0.0%)       0.03 (  0.1%)
Pre-SCC initialisation                 +       0.03 (  0.0%)       0.01 (  0.0%)
SCC                                    +     110.67 (100.0%)      42.98 ( 99.8%)
Post-geometry optimisation             +       0.00 (  0.0%)       0.03 (  0.1%)
--------------------------------------------------------------------------------
Missing                                +       0.00 (  0.0%)       0.00 (  0.0%)
Total                                  =     110.70 (100.0%)      43.06 (100.0%)
--------------------------------------------------------------------------------
