   96
Geometry Step: 0
    C      0.14744300      1.74619300      0.00000000      3.93986127
    C      0.33550700      0.33669300      0.00000000      3.93985821
    C      1.65011300     -0.20530600      0.00000000      3.93983202
    C      2.77673300      0.66232200      0.00000000      3.93986727
    C      2.58864400      2.07185700      0.00000000      3.93989023
    C      1.27396900      2.61388600      0.00000000      3.93986253
    C      1.08503100      4.02857300      0.00000000      4.06685427
    C      0.92164200      5.24594900      0.00000000      3.99283304
    C      0.74058400      6.60505900      0.00000000      4.00044485
    C      0.57933100      7.82775000      0.00000000      4.00044670
    C      0.39937900      9.18698700      0.00000000      3.99283393
    C      0.23776400     10.40459100      0.00000000      4.06685449
    C      3.71931000      2.94270000      0.00000000      4.06684887
    C      4.69284300      3.69157700      0.00000000      3.99284769
    C      5.77950600      4.52759000      0.00000000      4.00044349
    C      6.75704900      5.27944800      0.00000000      4.00045184
    C      7.84357100      6.11565300      0.00000000      3.99284259
    C      8.81677800      6.86495900      0.00000000      4.06685762
    C      4.09579800      0.11739200      0.00000000      4.06686017
    C      5.22902100     -0.35631500      0.00000000      3.99283378
    C      6.49579700     -0.88071000      0.00000000      4.00045221
    C      7.63591400     -1.35076600      0.00000000      4.00043549
    C      8.90410300     -1.87162100      0.00000000      3.99284554
    C     10.04099700     -2.33643400      0.00000000      4.06684329
    C     -1.45363500     13.77076500      0.00000000      3.93986027
    C     -1.26557100     12.36126500      0.00000000      3.93985765
    C      0.04903500     11.81926500      0.00000000      3.93983206
    C      1.17565500     12.68689300      0.00000000      3.93986645
    C      0.98756600     14.09642800      0.00000000      3.93989074
    C     -0.32710900     14.63845700      0.00000000      3.93986275
    C     -0.51604700     16.05314400      0.00000000      4.06685587
    C     -0.67943600     17.27051900      0.00000000      3.99283210
    C     -0.86049400     18.62963100      0.00000000      4.00044667
    C     -1.02174700     19.85232200      0.00000000      4.00044467
    C     -1.20169900     21.21155900      0.00000000      3.99284050
    C     -1.36331400     22.42916100      0.00000000      4.06684336
    C      2.11823200     14.96727100      0.00000000      4.06685053
    C      3.09176500     15.71614800      0.00000000      3.99284678
    C      4.17842800     16.55216200      0.00000000      4.00044507
    C      5.15597100     17.30402000      0.00000000      4.00044993
    C      6.24249300     18.14022400      0.00000000      3.99284774
    C      7.21570000     18.88953000      0.00000000      4.06684922
    C      2.49472000     12.14196300      0.00000000      4.06686049
    C      3.62794300     11.66825700      0.00000000      3.99283295
    C      4.89471900     11.14386100      0.00000000      4.00045155
    C      6.03483600     10.67380600      0.00000000      4.00043514
    C      7.30302500     10.15295000      0.00000000      3.99284458
    C      8.43991900      9.68813700      0.00000000      4.06684408
    C     11.36072800     -2.87959700     -0.00000000      3.93986126
    C     11.54879300     -4.28909700     -0.00000000      3.93985867
    C     12.86339900     -4.83109600     -0.00000000      3.93983258
    C     13.99001900     -3.96346800     -0.00000000      3.93986716
    C     13.80192900     -2.55393300     -0.00000000      3.93988974
    C     12.48725500     -2.01190400     -0.00000000      3.93986317
    C     12.29831600     -0.59721700     -0.00000000      4.06685391
    C     12.13492700      0.62015900     -0.00000000      3.99283366
    C     11.95387000      1.97926900     -0.00000000      4.00044524
    C     11.79261600      3.20196000     -0.00000000      4.00044713
    C     11.61266400      4.56119700     -0.00000000      3.99283439
    C     11.45105000      5.77880000     -0.00000000      4.06685400
    C     14.93259500     -1.68309000     -0.00000000      4.06684764
    C     15.90612800     -0.93421300     -0.00000000      3.99284852
    C     16.99279200     -0.09820000     -0.00000000      4.00044254
    C     17.97033500      0.65365800     -0.00000000      4.00045293
    C     19.05685600      1.48986200     -0.00000000      3.99283861
    C     20.03006400      2.23916900     -0.00000000      4.06686426
    C     15.30908400     -4.50839900     -0.00000000      4.06685909
    C     16.44230700     -4.98210500     -0.00000000      3.99283429
    C     17.70908200     -5.50650000     -0.00000000      4.00045099
    C     18.84919900     -5.97655600     -0.00000000      4.00043724
    C     20.11739000     -6.49741100     -0.00000000      3.99284095
    C     21.25428200     -6.96222400     -0.00000000      4.06685078
    C      9.75965000      9.14497600      0.00000000      3.93986028
    C      9.94771500      7.73547500      0.00000000      3.93985833
    C     11.26232100      7.19347500      0.00000000      3.93983270
    C     12.38894100      8.06110400      0.00000000      3.93986635
    C     12.20085100      9.47063800      0.00000000      3.93988996
    C     10.88617700     10.01266700      0.00000000      3.93986333
    C     10.69723800     11.42735500      0.00000000      4.06685593
    C     10.53384900     12.64473000      0.00000000      3.99283251
    C     10.35279200     14.00384100      0.00000000      4.00044692
    C     10.19153800     15.22653200      0.00000000      4.00044524
    C     10.01158600     16.58577000      0.00000000      3.99284120
    C      9.84997200     17.80337100      0.00000000      4.06684257
    C     13.33151700     10.34148000      0.00000000      4.06684930
    C     14.30505000     11.09035900      0.00000000      3.99284783
    C     15.39171400     11.92637300      0.00000000      4.00044389
    C     16.36925700     12.67823000      0.00000000      4.00045109
    C     17.45577800     13.51443500      0.00000000      3.99284397
    C     18.42898600     14.26374100      0.00000000      4.06685550
    C     13.70800600      7.51617300      0.00000000      4.06685934
    C     14.84122800      7.04246700      0.00000000      3.99283350
    C     16.10800400      6.51807100      0.00000000      4.00045046
    C     17.24812100      6.04801600      0.00000000      4.00043682
    C     18.51631200      5.52716000      0.00000000      3.99283997
    C     19.65320400      5.06234700      0.00000000      4.06685171
