  108
Geometry Step: 0
    C     -2.76962000      4.60802000     -0.03373460      3.94025576
    C     -2.70720000      3.18191000     -0.02172630      3.94023026
    C     -1.44100000      2.52280000     -0.01496380      3.94020528
    C     -0.23731700      3.29022000     -0.01577160      3.94026421
    C     -0.29981500      4.71637000     -0.01922350      3.94024157
    C     -1.56600000      5.37547000     -0.03041200      3.94020051
    C     -1.37888000      1.09352000     -0.00162201      4.07223613
    C     -1.32840000     -0.13334300      0.01570490      3.99227665
    C     -1.27073000     -1.50803000      0.03430260      3.99691045
    C     -1.22004000     -2.73469000      0.05437570      4.07308760
    C     -1.15959000     -4.16437000      0.06956980      3.93078350
    C      1.03155000      2.62970000     -0.00819714      4.07221865
    C      2.11945000      2.06025000     -0.00180054      3.99230611
    C      3.33861000      1.42252000      0.00542282      3.99691693
    C      4.42531000      0.85111700      0.01299020      4.07308039
    C      5.69422000      0.18981000      0.01695830      3.93076261
    C      0.90638800      5.48533000     -0.00512262      4.07223271
    C      1.94052000      6.14703000      0.01926550      3.99229376
    C      3.10079000      6.88586000      0.05025860      3.99692268
    C      4.13629000      7.54471000      0.08396970      4.07307761
    C      5.34506000      8.30918000      0.12768800      3.93077282
    C     -1.62827000      6.80480000     -0.03271670      4.07223222
    C     -1.67884000      8.03179000     -0.02937190      3.99227686
    C     -1.73728000      9.40654000     -0.02106270      3.99690948
    C     -1.78885000     10.63330000     -0.01053750      4.07308226
    C     -1.85166000     12.06280000      0.00968370      3.93078841
    C     -4.03848000      5.26839000     -0.04715160      4.07222280
    C     -5.12669000      5.83700000     -0.06435990      3.99230794
    C     -6.34602000      6.47364000     -0.09425480      3.99691503
    C     -7.43322000      7.04317000     -0.12667500      4.07309395
    C     -8.70122000      7.70351000     -0.18570800      3.93074613
    C     -3.91368000      2.41336000     -0.00657725      4.07224051
    C     -4.94875000      1.75340000      0.02469310      3.99229068
    C     -6.10944000      1.01627000      0.07523690      3.99691239
    C     -7.14533000      0.35971600      0.13334300      4.07310179
    C     -8.35289000     -0.40265600      0.22358600      3.93074993
    C     -2.36158000     -4.93656000      0.10880200      3.90704425
    C     -2.28171000     -6.34593000      0.11643800      4.09841980
    C     -1.03971000     -6.98672000      0.08753020      4.07342720
    C      0.14364200     -6.24348000      0.05350900      4.09840568
    C      0.10359800     -4.83247000      0.04533880      3.90704298
    C     -8.30125000     -1.82896000      0.29811300      3.90703639
    C     -9.50254000     -2.56265000      0.40418200      4.09845281
    C    -10.73560000     -1.90481000      0.43444900      4.07344988
    C    -10.80060000     -0.51075200      0.35501600      4.09841864
    C     -9.62069000      0.25652500      0.24711100      3.90703163
    C      5.76377000     -1.23753000      0.00214422      3.90704973
    C      7.02496000     -1.87156000      0.00179502      4.09842968
    C      8.19980000     -1.11432000      0.01868470      4.07343882
    C      8.14597000      0.28239700      0.03648820      4.09843714
    C      6.90318000      0.95174100      0.03546330      3.90702193
    H      1.10566000     -6.75414000      0.03364690      0.91229217
    C     -9.86245000      5.50800000     -0.11576400      4.08245747
    H     -0.99346600     -8.07559000      0.09328720      0.91879527
    H     -3.19677000     -6.93621000      0.14523800      0.91230642
    H      9.16652000     -1.61751000      0.01895950      0.91880815
    H      9.06851000      0.86143000      0.05110120      0.91230049
    H      7.07992000     -2.95942000     -0.01072020      0.91229629
    H    -11.76760000     -0.00972408      0.37683400      0.91228417
    H     -9.46541000     -3.64970000      0.46376100      0.91230150
    C     -8.76940000      9.12988000     -0.24215200      3.90705022
    C    -10.02920000      9.76242000     -0.31635400      4.09844024
    C    -11.20380000      9.00482000     -0.33252900      4.07343150
    C    -11.15150000      7.60936000     -0.26945700      4.09844502
    C     -9.91029000      6.94158000     -0.19307100      3.90700898
    C      5.29451000      9.73705000      0.16235500      3.90704471
    C      6.49782000     10.47360000      0.20877100      4.09843136
    C      7.73182000      9.81696000      0.21960300      4.07344187
    C      7.79541000      8.42101000      0.18508500      4.09840427
    C      6.61339000      7.65070000      0.13989000      3.90703000
    C     -3.11560000     12.72910000     -0.02458650      3.90703949
    C     -3.15820000     14.13980000      0.00230797      4.09839702
    C     -1.97674000     14.88450000      0.06160370      4.07342905
    C     -0.73385400     14.24560000      0.09320270      4.09840768
    C     -0.65141800     12.83660000      0.06715670      3.90705416
    H    -11.65480000     -2.48414000      0.51873300      0.91880051
    H    -10.08320000     10.84950000     -0.36131500      0.91230922
    H    -12.16930000      9.50687000     -0.39197000      0.91881328
    H    -12.07400000      7.03015000     -0.27880000      0.91229627
    H     -4.12078000     14.64920000     -0.02242380      0.91230091
    H     -2.02507000     15.97310000      0.08292910      0.91880018
    H      0.17985600     14.83700000      0.13841100      0.91230073
    H      6.46154000     11.56200000      0.23622300      0.91230849
    H      8.65278000     10.39860000      0.25574700      0.91880830
    C     -7.03680000     -2.50979000      0.26318400      4.08245043
    C     -5.95276000     -3.08299000      0.22377900      4.00090107
    C     -4.73077000     -3.72206000      0.18302300      4.00096569
    C     -3.64080000     -4.28392000      0.14400400      4.08238708
    C      1.32340000     -4.07450000      0.01768500      4.08237346
    C      2.36339000     -3.42384000      0.00424895      4.00099617
    C      3.52789000     -2.68436000     -0.00479981      4.00095282
    C      4.55978000     -2.02080000     -0.00743037      4.08241346
    C      6.85377000      2.38723000      0.05384480      4.08242911
    C      6.80412000      3.61298000      0.06962180      4.00092268
    C      6.74428000      4.99108000      0.09029140      4.00098063
    C      6.68547000      6.21637000      0.10964100      4.08236813
    C      4.02898000     10.41660000      0.14966400      4.08245476
    C      2.94370000     10.98860000      0.13563000      4.00090799
    C      1.72034000     11.62590000      0.11625100      4.00096924
    C      0.62891600     12.18590000      0.09669760      4.08239404
    C     -4.33347000     11.96970000     -0.08422040      4.08236602
    C     -5.37186000     11.31820000     -0.13421700      4.00099828
    C     -6.53499000     10.57780000     -0.18038300      4.00093349
    C     -7.56585000      9.91363000     -0.21730900      4.08241491
    C     -9.69429000      1.68829000      0.15775000      4.08237158
    C     -9.75372000      2.91025000      0.06594900      4.00097225
    C     -9.81354000      4.28524000     -0.02845540      4.00089187
    H      8.76304000      7.92082000      0.19400300      0.91229627
