|===============================================================================
|
|  DFTB+ release 22.2
|
|  Copyright (C) 2006 - 2022  DFTB+ developers group
|
|===============================================================================
|
|  When publishing results obtained with DFTB+, please cite the following
|  reference:
|
|  * DFTB+, a software package for efficient approximate density functional
|    theory based atomistic simulations, J. Chem. Phys. 152, 124101 (2020).
|    [doi: 10.1063/1.5143190]
|
|  You should also cite additional publications crediting the parametrization
|  data you use. Please consult the documentation of the SK-files for the
|  references.
|
|===============================================================================

Reading input file 'dftb_in.hsd'
Parser version: 12

--------------------------------------------------------------------------------
Reading SK-files:
/home/usr/bin/dftb_plus/parameters/slako/3ob/3ob-3-1/C-C.skf
/home/usr/bin/dftb_plus/parameters/slako/3ob/3ob-3-1/C-H.skf
/home/usr/bin/dftb_plus/parameters/slako/3ob/3ob-3-1/H-H.skf
Done.


Processed input in HSD format written to 'dftb_pin.hsd'

Starting initialization...
--------------------------------------------------------------------------------
Chosen random seed:          292183873
Mode:                        Static calculation
Self consistent charges:     Yes
SCC-tolerance:                 0.100000E-04
Max. scc iterations:                   1000
Shell resolved Hubbard:      Yes
Spin polarisation:           No
Nr. of up electrons:           189.000000
Nr. of down electrons:         189.000000
Periodic boundaries:         No
Electronic solver:           Relatively robust
Mixer:                       Simple mixer
Mixing parameter:                  0.050000
Maximal SCC-cycles:                    1000
Electronic temperature:              0.100000E-07 H      0.272114E-06 eV
Initial charges:             Set automatically (system chrg:   0.000E+00)
Included shells:             C:  s, p
                             H:  s
Using Lennard-Jones dispersion corrections
Extra options:
                             Mulliken analysis

--------------------------------------------------------------------------------

***  Geometry step: 0

 iSCC Total electronic   Diff electronic      SCC error    
    1    0.00000000E+00    0.00000000E+00    0.12973564E+00
    2   -0.16382346E+03   -0.16382346E+03    0.11876943E+00
    3   -0.16383382E+03   -0.10364060E-01    0.10975252E+00
    4   -0.16384136E+03   -0.75372199E-02    0.10150785E+00
    5   -0.16384688E+03   -0.55239426E-02    0.93964373E-01
    6   -0.16385096E+03   -0.40795247E-02    0.87056861E-01
    7   -0.16385400E+03   -0.30360873E-02    0.80725829E-01
    8   -0.16385627E+03   -0.22773213E-02    0.75821798E-01
    9   -0.16385800E+03   -0.17219664E-02    0.71922065E-01
   10   -0.16385931E+03   -0.13128329E-02    0.68152357E-01
   11   -0.16386032E+03   -0.10094103E-02    0.64520701E-01
   12   -0.16386110E+03   -0.78283503E-03    0.61032268E-01
   13   -0.16386171E+03   -0.61243244E-03    0.57689903E-01
   14   -0.16386220E+03   -0.48331908E-03    0.54494568E-01
   15   -0.16386258E+03   -0.38472953E-03    0.51445707E-01
   16   -0.16386289E+03   -0.30884065E-03    0.48541556E-01
   17   -0.16386314E+03   -0.24994095E-03    0.45779400E-01
   18   -0.16386334E+03   -0.20384073E-03    0.43155788E-01
   19   -0.16386351E+03   -0.16745149E-03    0.40666712E-01
   20   -0.16386365E+03   -0.13848459E-03    0.38307961E-01
>> Charges saved for restart in charges.dat
   21   -0.16386377E+03   -0.11523479E-03    0.36074777E-01
   22   -0.16386386E+03   -0.96423978E-04    0.33962039E-01
   23   -0.16386394E+03   -0.81088143E-04    0.31964749E-01
   24   -0.16386401E+03   -0.68495293E-04    0.30077867E-01
   25   -0.16386407E+03   -0.58085620E-04    0.28296364E-01
   26   -0.16386412E+03   -0.49427781E-04    0.26615267E-01
   27   -0.16386416E+03   -0.42186811E-04    0.25029691E-01
   28   -0.16386420E+03   -0.36100485E-04    0.23534866E-01
   29   -0.16386423E+03   -0.30961848E-04    0.22126155E-01
   30   -0.16386425E+03   -0.26606219E-04    0.20799073E-01
   31   -0.16386428E+03   -0.22901499E-04    0.19549294E-01
   32   -0.16386430E+03   -0.19740891E-04    0.18372659E-01
   33   -0.16386431E+03   -0.17037401E-04    0.17265178E-01
   34   -0.16386433E+03   -0.14719663E-04    0.16223038E-01
   35   -0.16386434E+03   -0.12728741E-04    0.15242596E-01
   36   -0.16386435E+03   -0.11015668E-04    0.14320379E-01
   37   -0.16386436E+03   -0.95395319E-05    0.13453085E-01
   38   -0.16386437E+03   -0.82659786E-05    0.12637574E-01
   39   -0.16386438E+03   -0.71660314E-05    0.11870867E-01
   40   -0.16386438E+03   -0.62151537E-05    0.11150138E-01
>> Charges saved for restart in charges.dat
   41   -0.16386439E+03   -0.53924938E-05    0.10472712E-01
   42   -0.16386439E+03   -0.46802789E-05    0.98360576E-02
   43   -0.16386440E+03   -0.40633188E-05    0.92377796E-02
   44   -0.16386440E+03   -0.35286019E-05    0.86756157E-02
   45   -0.16386440E+03   -0.30649603E-05    0.81474293E-02
   46   -0.16386441E+03   -0.26627909E-05    0.76512035E-02
   47   -0.16386441E+03   -0.23138255E-05    0.71850360E-02
   48   -0.16386441E+03   -0.20109351E-05    0.67471329E-02
   49   -0.16386441E+03   -0.17479670E-05    0.63358034E-02
   50   -0.16386441E+03   -0.15196050E-05    0.59494542E-02
   51   -0.16386442E+03   -0.13212532E-05    0.55865850E-02
   52   -0.16386442E+03   -0.11489349E-05    0.52457829E-02
   53   -0.16386442E+03   -0.99920712E-06    0.49257179E-02
   54   -0.16386442E+03   -0.86908764E-06    0.46251384E-02
   55   -0.16386442E+03   -0.75599164E-06    0.43428667E-02
   56   -0.16386442E+03   -0.65767915E-06    0.40777950E-02
   57   -0.16386442E+03   -0.57220623E-06    0.38288814E-02
   58   -0.16386442E+03   -0.49788756E-06    0.35951462E-02
   59   -0.16386442E+03   -0.43326014E-06    0.33756682E-02
   60   -0.16386442E+03   -0.37705396E-06    0.31695813E-02
>> Charges saved for restart in charges.dat
   61   -0.16386442E+03   -0.32816718E-06    0.29760716E-02
   62   -0.16386442E+03   -0.28564202E-06    0.27943741E-02
   63   -0.16386442E+03   -0.24864732E-06    0.26237698E-02
   64   -0.16386442E+03   -0.21646093E-06    0.24635832E-02
   65   -0.16386442E+03   -0.18845563E-06    0.23131796E-02
   66   -0.16386442E+03   -0.16408580E-06    0.21719625E-02
   67   -0.16386442E+03   -0.14287798E-06    0.20393718E-02
   68   -0.16386442E+03   -0.12442032E-06    0.19148813E-02
   69   -0.16386442E+03   -0.10835512E-06    0.17979966E-02
   70   -0.16386442E+03   -0.94370762E-07    0.16882535E-02
   71   -0.16386442E+03   -0.82197175E-07    0.15852159E-02
   72   -0.16386442E+03   -0.71598890E-07    0.14884742E-02
   73   -0.16386442E+03   -0.62371555E-07    0.13976438E-02
   74   -0.16386442E+03   -0.54336908E-07    0.13123637E-02
   75   -0.16386442E+03   -0.47340535E-07    0.12322946E-02
   76   -0.16386442E+03   -0.41247972E-07    0.11571179E-02
   77   -0.16386442E+03   -0.35941753E-07    0.10865348E-02
   78   -0.16386442E+03   -0.31320297E-07    0.10202642E-02
   79   -0.16386442E+03   -0.27294703E-07    0.95804268E-03
   80   -0.16386442E+03   -0.23788175E-07    0.89962253E-03
>> Charges saved for restart in charges.dat
   81   -0.16386442E+03   -0.20733580E-07    0.84477135E-03
   82   -0.16386442E+03   -0.18072200E-07    0.79327090E-03
   83   -0.16386442E+03   -0.15753614E-07    0.74491625E-03
   84   -0.16386442E+03   -0.13733313E-07    0.69951504E-03
   85   -0.16386442E+03   -0.11972901E-07    0.65688666E-03
   86   -0.16386442E+03   -0.10438612E-07    0.61686152E-03
   87   -0.16386442E+03   -0.91020524E-08    0.57928043E-03
   88   -0.16386442E+03   -0.79364497E-08    0.54399392E-03
   89   -0.16386442E+03   -0.69209420E-08    0.51086168E-03
   90   -0.16386442E+03   -0.60356342E-08    0.47975198E-03
   91   -0.16386442E+03   -0.52639280E-08    0.45054114E-03
   92   -0.16386442E+03   -0.45912145E-08    0.42311305E-03
   93   -0.16386442E+03   -0.40046473E-08    0.39735872E-03
   94   -0.16386442E+03   -0.34934828E-08    0.37317581E-03
   95   -0.16386442E+03   -0.30474325E-08    0.35046827E-03
   96   -0.16386442E+03   -0.26586804E-08    0.32914589E-03
   97   -0.16386442E+03   -0.23194673E-08    0.30912403E-03
   98   -0.16386442E+03   -0.20237962E-08    0.29032318E-03
   99   -0.16386442E+03   -0.17660113E-08    0.27266873E-03
  100   -0.16386442E+03   -0.15410819E-08    0.25609062E-03
>> Charges saved for restart in charges.dat
  101   -0.16386442E+03   -0.13449721E-08    0.24052309E-03
  102   -0.16386442E+03   -0.11735608E-08    0.22590440E-03
  103   -0.16386442E+03   -0.10244889E-08    0.21217658E-03
  104   -0.16386442E+03   -0.89411856E-09    0.19928522E-03
  105   -0.16386442E+03   -0.78037488E-09    0.18717922E-03
  106   -0.16386442E+03   -0.68143891E-09    0.17581064E-03
  107   -0.16386442E+03   -0.59483796E-09    0.16513444E-03
  108   -0.16386442E+03   -0.51923621E-09    0.15510834E-03
  109   -0.16386442E+03   -0.45341153E-09    0.14569268E-03
  110   -0.16386442E+03   -0.39599968E-09    0.13685017E-03
  111   -0.16386442E+03   -0.34569325E-09    0.12854586E-03
  112   -0.16386442E+03   -0.30198066E-09    0.12074689E-03
  113   -0.16386442E+03   -0.26361135E-09    0.11342243E-03
  114   -0.16386442E+03   -0.23032953E-09    0.10654355E-03
  115   -0.16386442E+03   -0.20119728E-09    0.10008305E-03
  116   -0.16386442E+03   -0.17558932E-09    0.94015430E-04
  117   -0.16386442E+03   -0.15350565E-09    0.88316729E-04
  118   -0.16386442E+03   -0.13403678E-09    0.82964455E-04
  119   -0.16386442E+03   -0.11729639E-09    0.77937492E-04
  120   -0.16386442E+03   -0.10223289E-09    0.73216012E-04
>> Charges saved for restart in charges.dat
  121   -0.16386442E+03   -0.89414698E-10    0.68781401E-04
  122   -0.16386442E+03   -0.78216544E-10    0.64616180E-04
  123   -0.16386442E+03   -0.68155259E-10    0.60703939E-04
  124   -0.16386442E+03   -0.59856120E-10    0.57029269E-04
  125   -0.16386442E+03   -0.52153837E-10    0.53577702E-04
  126   -0.16386442E+03   -0.45560000E-10    0.50335655E-04
  127   -0.16386442E+03   -0.39875658E-10    0.47290373E-04
  128   -0.16386442E+03   -0.34816594E-10    0.44429879E-04
  129   -0.16386442E+03   -0.30524916E-10    0.41742927E-04
  130   -0.16386442E+03   -0.26574298E-10    0.39218959E-04
  131   -0.16386442E+03   -0.23192115E-10    0.36848060E-04
  132   -0.16386442E+03   -0.20435209E-10    0.34620919E-04
  133   -0.16386442E+03   -0.17820412E-10    0.32528794E-04
  134   -0.16386442E+03   -0.15518253E-10    0.30563476E-04
  135   -0.16386442E+03   -0.13642421E-10    0.28717256E-04
  136   -0.16386442E+03   -0.11908696E-10    0.26982895E-04
  137   -0.16386442E+03   -0.10317081E-10    0.25353595E-04
  138   -0.16386442E+03   -0.92086339E-11    0.23822975E-04
  139   -0.16386442E+03   -0.79865003E-11    0.22385038E-04
  140   -0.16386442E+03   -0.68496320E-11    0.21034157E-04
>> Charges saved for restart in charges.dat
  141   -0.16386442E+03   -0.61959327E-11    0.19765044E-04
  142   -0.16386442E+03   -0.54285465E-11    0.18572735E-04
  143   -0.16386442E+03   -0.45758952E-11    0.17452568E-04
  144   -0.16386442E+03   -0.40643044E-11    0.16400166E-04
  145   -0.16386442E+03   -0.35811354E-11    0.15411416E-04
  146   -0.16386442E+03   -0.32116532E-11    0.14482456E-04
  147   -0.16386442E+03   -0.27569058E-11    0.13609661E-04
  148   -0.16386442E+03   -0.23305802E-11    0.12789624E-04
  149   -0.16386442E+03   -0.20747848E-11    0.12019146E-04
  150   -0.16386442E+03   -0.17905677E-11    0.11295223E-04
  151   -0.16386442E+03   -0.15916157E-11    0.10615034E-04
  152   -0.16386442E+03   -0.15631940E-11    0.99759282E-05
>> Charges saved for restart in charges.dat

Total Energy:                     -158.7497208252 H        -4319.7997 eV
Extrapolated to 0K:               -158.7497208252 H        -4319.7997 eV
Total Mermin free energy:         -158.7497208252 H        -4319.7997 eV
Force related energy:             -158.7497208252 H        -4319.7997 eV


--------------------------------------------------------------------------------
DFTB+ running times                          cpu [s]             wall clock [s]
--------------------------------------------------------------------------------
Global initialisation                  +       0.00 (  0.0%)       0.03 (  0.1%)
Pre-SCC initialisation                 +       0.04 (  0.0%)       0.01 (  0.0%)
SCC                                    +      94.45 (100.0%)      31.92 ( 99.8%)
Post-geometry optimisation             +       0.00 (  0.0%)       0.03 (  0.1%)
--------------------------------------------------------------------------------
Missing                                +       0.00 (  0.0%)       0.00 (  0.0%)
Total                                  =      94.49 (100.0%)      31.99 (100.0%)
--------------------------------------------------------------------------------
