|===============================================================================
|
|  DFTB+ release 22.2
|
|  Copyright (C) 2006 - 2022  DFTB+ developers group
|
|===============================================================================
|
|  When publishing results obtained with DFTB+, please cite the following
|  reference:
|
|  * DFTB+, a software package for efficient approximate density functional
|    theory based atomistic simulations, J. Chem. Phys. 152, 124101 (2020).
|    [doi: 10.1063/1.5143190]
|
|  You should also cite additional publications crediting the parametrization
|  data you use. Please consult the documentation of the SK-files for the
|  references.
|
|===============================================================================

Reading input file 'dftb_in.hsd'
Parser version: 12

--------------------------------------------------------------------------------
Reading SK-files:
/home/usr/bin/dftb_plus/parameters/slako/matsci/matsci-0-3/C-C.skf
/home/usr/bin/dftb_plus/parameters/slako/matsci/matsci-0-3/C-H.skf
/home/usr/bin/dftb_plus/parameters/slako/matsci/matsci-0-3/H-H.skf
Done.


Processed input in HSD format written to 'dftb_pin.hsd'

Starting initialization...
--------------------------------------------------------------------------------
Chosen random seed:          290463743
Mode:                        Static calculation
Self consistent charges:     Yes
SCC-tolerance:                 0.100000E-04
Max. scc iterations:                   1000
Shell resolved Hubbard:      No
Spin polarisation:           No
Nr. of up electrons:           999.000000
Nr. of down electrons:         999.000000
Periodic boundaries:         No
Electronic solver:           Relatively robust
Mixer:                       Simple mixer
Mixing parameter:                  0.050000
Maximal SCC-cycles:                    1000
Electronic temperature:              0.950045E-03 H      0.258520E-01 eV
Initial charges:             Set automatically (system chrg:   0.000E+00)
Included shells:             C:  s, p
                             H:  s
Using Lennard-Jones dispersion corrections
Extra options:
                             Mulliken analysis

--------------------------------------------------------------------------------

***  Geometry step: 0

 iSCC Total electronic   Diff electronic      SCC error    
    1    0.00000000E+00    0.00000000E+00    0.12866318E+00
    2   -0.92140087E+03   -0.92140087E+03    0.11642348E+00
    3   -0.92140427E+03   -0.34007647E-02    0.10621123E+00
    4   -0.92140635E+03   -0.20822649E-02    0.97529801E-01
    5   -0.92140770E+03   -0.13435929E-02    0.90029070E-01
    6   -0.92140861E+03   -0.91477822E-03    0.83455728E-01
    7   -0.92140927E+03   -0.65586891E-03    0.77623229E-01
    8   -0.92140976E+03   -0.49245047E-03    0.72392363E-01
    9   -0.92141014E+03   -0.38417550E-03    0.67658064E-01
   10   -0.92141045E+03   -0.30877675E-03    0.63340171E-01
   11   -0.92141071E+03   -0.25373348E-03    0.59376848E-01
   12   -0.92141092E+03   -0.21185029E-03    0.55719835E-01
   13   -0.92141110E+03   -0.17888099E-03    0.52350120E-01
   14   -0.92141125E+03   -0.15223763E-03    0.49210360E-01
   15   -0.92141138E+03   -0.13028173E-03    0.46277522E-01
   16   -0.92141149E+03   -0.11193085E-03    0.43533145E-01
   17   -0.92141159E+03   -0.96437314E-04    0.40961511E-01
   18   -0.92141167E+03   -0.83261804E-04    0.38549057E-01
   19   -0.92141174E+03   -0.71999746E-04    0.36283927E-01
   20   -0.92141180E+03   -0.62337364E-04    0.34155635E-01
>> Charges saved for restart in charges.dat
   21   -0.92141186E+03   -0.54024705E-04    0.32154812E-01
   22   -0.92141191E+03   -0.46858483E-04    0.30273009E-01
   23   -0.92141195E+03   -0.40670781E-04    0.28502546E-01
   24   -0.92141198E+03   -0.35321274E-04    0.26836395E-01
   25   -0.92141201E+03   -0.30691699E-04    0.25268093E-01
   26   -0.92141204E+03   -0.26681766E-04    0.23805322E-01
   27   -0.92141206E+03   -0.23206008E-04    0.22433265E-01
   28   -0.92141208E+03   -0.20191360E-04    0.21139244E-01
   29   -0.92141210E+03   -0.17575168E-04    0.19918889E-01
   30   -0.92141211E+03   -0.15303601E-04    0.18768075E-01
   31   -0.92141213E+03   -0.13330335E-04    0.17682902E-01
   32   -0.92141214E+03   -0.11615448E-04    0.16659688E-01
   33   -0.92141215E+03   -0.10124491E-04    0.15694954E-01
   34   -0.92141216E+03   -0.88277206E-05    0.14785414E-01
   35   -0.92141217E+03   -0.76994210E-05    0.13927960E-01
   36   -0.92141217E+03   -0.67173578E-05    0.13119659E-01
   37   -0.92141218E+03   -0.58622834E-05    0.12357739E-01
   38   -0.92141218E+03   -0.51175302E-05    0.11639580E-01
   39   -0.92141219E+03   -0.44686526E-05    0.10962708E-01
   40   -0.92141219E+03   -0.39031314E-05    0.10324786E-01
>> Charges saved for restart in charges.dat
   41   -0.92141220E+03   -0.34101073E-05    0.97236060E-02
   42   -0.92141220E+03   -0.29801591E-05    0.91570832E-02
   43   -0.92141220E+03   -0.26051067E-05    0.86232481E-02
   44   -0.92141220E+03   -0.22778451E-05    0.81202412E-02
   45   -0.92141221E+03   -0.19922090E-05    0.76463066E-02
   46   -0.92141221E+03   -0.17428307E-05    0.71997865E-02
   47   -0.92141221E+03   -0.15250490E-05    0.67791157E-02
   48   -0.92141221E+03   -0.13348151E-05    0.63828168E-02
   49   -0.92141221E+03   -0.11685943E-05    0.60094952E-02
   50   -0.92141221E+03   -0.10233221E-05    0.56578346E-02
   51   -0.92141221E+03   -0.89632329E-06    0.53265929E-02
   52   -0.92141221E+03   -0.78527512E-06    0.50145980E-02
   53   -0.92141222E+03   -0.68814620E-06    0.47207439E-02
   54   -0.92141222E+03   -0.60317416E-06    0.44439871E-02
   55   -0.92141222E+03   -0.52881694E-06    0.41833433E-02
   56   -0.92141222E+03   -0.46373702E-06    0.39378838E-02
   57   -0.92141222E+03   -0.40676014E-06    0.37067328E-02
   58   -0.92141222E+03   -0.35686605E-06    0.34890641E-02
   59   -0.92141222E+03   -0.31316654E-06    0.32840987E-02
   60   -0.92141222E+03   -0.27487943E-06    0.30911020E-02
>> Charges saved for restart in charges.dat
   61   -0.92141222E+03   -0.24133169E-06    0.29093810E-02
   62   -0.92141222E+03   -0.21193000E-06    0.27382828E-02
   63   -0.92141222E+03   -0.18615037E-06    0.25771914E-02
   64   -0.92141222E+03   -0.16354693E-06    0.24255263E-02
   65   -0.92141222E+03   -0.14372279E-06    0.22827402E-02
   66   -0.92141222E+03   -0.12633177E-06    0.21483173E-02
   67   -0.92141222E+03   -0.11107409E-06    0.20217713E-02
   68   -0.92141222E+03   -0.97682118E-07    0.19026439E-02
   69   -0.92141222E+03   -0.85923602E-07    0.17905033E-02
   70   -0.92141222E+03   -0.75604248E-07    0.16849425E-02
   71   -0.92141222E+03   -0.66540451E-07    0.15855778E-02
   72   -0.92141222E+03   -0.58577712E-07    0.14920480E-02
   73   -0.92141222E+03   -0.51580400E-07    0.14040125E-02
   74   -0.92141222E+03   -0.45434490E-07    0.13211506E-02
   75   -0.92141222E+03   -0.40030727E-07    0.12431598E-02
   76   -0.92141222E+03   -0.35281687E-07    0.11697556E-02
   77   -0.92141222E+03   -0.31100512E-07    0.11006697E-02
   78   -0.92141222E+03   -0.27430247E-07    0.10356493E-02
   79   -0.92141222E+03   -0.24195401E-07    0.97445659E-03
   80   -0.92141222E+03   -0.21350161E-07    0.91686724E-03
>> Charges saved for restart in charges.dat
   81   -0.92141222E+03   -0.18846890E-07    0.86267015E-03
   82   -0.92141222E+03   -0.16643639E-07    0.81166646E-03
   83   -0.92141222E+03   -0.14699367E-07    0.76366887E-03
   84   -0.92141222E+03   -0.12991450E-07    0.71850102E-03
   85   -0.92141222E+03   -0.11485099E-07    0.67599681E-03
   86   -0.92141222E+03   -0.10155418E-07    0.63599982E-03
   87   -0.92141222E+03   -0.89862624E-08    0.59836278E-03
   88   -0.92141222E+03   -0.79521669E-08    0.56294700E-03
   89   -0.92141222E+03   -0.70424448E-08    0.52962190E-03
   90   -0.92141222E+03   -0.62411800E-08    0.49826453E-03
   91   -0.92141222E+03   -0.55293867E-08    0.46875914E-03
   92   -0.92141222E+03   -0.49034270E-08    0.44099674E-03
   93   -0.92141222E+03   -0.43505679E-08    0.41487474E-03
   94   -0.92141222E+03   -0.38631924E-08    0.39029652E-03
   95   -0.92141222E+03   -0.34299319E-08    0.36717116E-03
   96   -0.92141222E+03   -0.30498768E-08    0.34541305E-03
   97   -0.92141222E+03   -0.27105216E-08    0.32494161E-03
   98   -0.92141222E+03   -0.24135716E-08    0.30568099E-03
   99   -0.92141222E+03   -0.21479991E-08    0.28755978E-03
  100   -0.92141222E+03   -0.19136905E-08    0.27051076E-03
>> Charges saved for restart in charges.dat
  101   -0.92141222E+03   -0.17063257E-08    0.25447068E-03
  102   -0.92141222E+03   -0.15223804E-08    0.23937999E-03
  103   -0.92141222E+03   -0.13594672E-08    0.22518265E-03
  104   -0.92141222E+03   -0.12145165E-08    0.21182591E-03
  105   -0.92141222E+03   -0.10865051E-08    0.19926011E-03
  106   -0.92141222E+03   -0.97304564E-09    0.18743854E-03
  107   -0.92141222E+03   -0.87095486E-09    0.17631723E-03
  108   -0.92141222E+03   -0.78046014E-09    0.16585478E-03
  109   -0.92141222E+03   -0.69985617E-09    0.15601226E-03
  110   -0.92141222E+03   -0.62914296E-09    0.14675300E-03
  111   -0.92141222E+03   -0.56604677E-09    0.13804252E-03
  112   -0.92141222E+03   -0.50908966E-09    0.12984836E-03
  113   -0.92141222E+03   -0.45827164E-09    0.12213998E-03
  114   -0.92141222E+03   -0.41268322E-09    0.11488863E-03
  115   -0.92141222E+03   -0.37380232E-09    0.10806726E-03
  116   -0.92141222E+03   -0.33685410E-09    0.10165042E-03
  117   -0.92141222E+03   -0.30388492E-09    0.95614174E-04
  118   -0.92141222E+03   -0.27489477E-09    0.89935978E-04
  119   -0.92141222E+03   -0.24920155E-09    0.84594631E-04
  120   -0.92141222E+03   -0.22816948E-09    0.79570182E-04
>> Charges saved for restart in charges.dat
  121   -0.92141222E+03   -0.20418156E-09    0.74843860E-04
  122   -0.92141222E+03   -0.18746960E-09    0.70398002E-04
  123   -0.92141222E+03   -0.16984814E-09    0.66215989E-04
  124   -0.92141222E+03   -0.15518253E-09    0.62282186E-04
  125   -0.92141222E+03   -0.14131274E-09    0.58581881E-04
  126   -0.92141222E+03   -0.12960300E-09    0.55101234E-04
  127   -0.92141222E+03   -0.11641532E-09    0.51827221E-04
  128   -0.92141222E+03   -0.10697931E-09    0.48747593E-04
  129   -0.92141222E+03   -0.99475983E-10    0.45863449E-04
  130   -0.92141222E+03   -0.91290531E-10    0.43154544E-04
  131   -0.92141222E+03   -0.83446139E-10    0.40605648E-04
  132   -0.92141222E+03   -0.74805939E-10    0.38207312E-04
  133   -0.92141222E+03   -0.70372153E-10    0.35950643E-04
  134   -0.92141222E+03   -0.64233063E-10    0.33827273E-04
  135   -0.92141222E+03   -0.60140337E-10    0.31829328E-04
  136   -0.92141222E+03   -0.53887561E-10    0.29949402E-04
  137   -0.92141222E+03   -0.49681148E-10    0.28180521E-04
  138   -0.92141222E+03   -0.47293724E-10    0.26516128E-04
  139   -0.92141222E+03   -0.43542059E-10    0.24950050E-04
  140   -0.92141222E+03   -0.38767212E-10    0.23476480E-04
>> Charges saved for restart in charges.dat
  141   -0.92141222E+03   -0.37630343E-10    0.22089954E-04
  142   -0.92141222E+03   -0.34106051E-10    0.20785328E-04
  143   -0.92141222E+03   -0.30809133E-10    0.19557766E-04
  144   -0.92141222E+03   -0.29217517E-10    0.18402716E-04
  145   -0.92141222E+03   -0.27739588E-10    0.17315893E-04
  146   -0.92141222E+03   -0.23419489E-10    0.16293267E-04
  147   -0.92141222E+03   -0.23533175E-10    0.15331046E-04
  148   -0.92141222E+03   -0.23192115E-10    0.14425662E-04
  149   -0.92141222E+03   -0.18985702E-10    0.13573757E-04
  150   -0.92141222E+03   -0.20236257E-10    0.12772550E-04
  151   -0.92141222E+03   -0.15916157E-10    0.12019189E-04
  152   -0.92141222E+03   -0.18530955E-10    0.11310275E-04
  153   -0.92141222E+03   -0.14324542E-10    0.10643184E-04
  154   -0.92141222E+03   -0.14097168E-10    0.10015449E-04
  155   -0.92141222E+03   -0.12619239E-10    0.94247471E-05
>> Charges saved for restart in charges.dat

Total Energy:                     -849.0657527949 H       -23104.2547 eV
Extrapolated to 0K:               -849.0660137368 H       -23104.2618 eV
Total Mermin free energy:         -849.0662746787 H       -23104.2689 eV
Force related energy:             -849.0662746787 H       -23104.2689 eV


--------------------------------------------------------------------------------
DFTB+ running times                          cpu [s]             wall clock [s]
--------------------------------------------------------------------------------
Global initialisation                  +       0.00 (  0.0%)       0.03 (  0.0%)
Pre-SCC initialisation                 +       0.16 (  0.0%)       0.06 (  0.0%)
SCC                                    +     550.42 (100.0%)     244.50 ( 99.9%)
Post-geometry optimisation             +       0.00 (  0.0%)       0.04 (  0.0%)
--------------------------------------------------------------------------------
Missing                                +       0.00 (  0.0%)       0.00 (  0.0%)
Total                                  =     550.57 (100.0%)     244.63 (100.0%)
--------------------------------------------------------------------------------