  576
Geometry Step: 18
    C      0.28468906      1.90361763      0.24003042      3.94044252
    C      0.28533396      0.48104359      0.24018833      3.94043655
    C      1.51756429     -0.22990780      0.23996909      3.94043882
    C      2.74934631      0.48189247      0.24041977      3.94049851
    C      2.74868689      1.90464173      0.24062636      3.94051258
    C      1.51638279      2.61557625      0.23999367      3.94047688
    C      3.98446845     -0.23133382      0.23991853      4.06526874
    C      5.04720542     -0.85015778      0.23991512      3.99340990
    C      6.23108036     -1.53652131      0.23987808      3.99877038
    C      7.30114170     -2.15755346      0.23982962      4.00159773
    C      8.48101487     -2.84030820      0.23986637      4.00048734
    C      9.55382152     -3.46017376      0.24000441      4.00050696
    C     10.73525538     -4.14027629      0.24026953      4.00158177
    C     11.80876925     -4.75534799      0.24064615      3.99878815
    C     12.99573116     -5.43640208      0.24097859      3.99339056
    C     14.06331387     -6.04682329      0.24128886      4.06527418
    C      3.98359337      2.61796205      0.24105346      4.06526413
    C      5.04893580      3.23214813      0.24236334      3.99341099
    C      6.23391154      3.91628584      0.24336668      3.99878055
    C      7.30518475      4.53504883      0.24426980      4.00158948
    C      8.48520980      5.21718145      0.24468301      4.00050547
    C      9.55746568      5.83777963      0.24466177      4.00049213
    C     10.73728523      6.52020283      0.24434521      4.00160314
    C     11.80814696      7.13959185      0.24362730      3.99876107
    C     12.99276701      7.82413922      0.24292178      3.99344432
    C     14.05775076      8.43877470      0.24203082      4.06522696
    C      1.51453964      4.04174760      0.23982521      4.06526081
    C      1.50538665      5.27145817      0.23870757      3.99340563
    C      1.49947962      6.63984599      0.23790496      3.99877654
    C      1.49321694      7.87702703      0.23735005      4.00159151
    C      1.49010490      9.24015740      0.23707571      4.00049784
    C      1.48961218     10.47911938      0.23709717      4.00049349
    C      1.49164948     11.84219347      0.23736752      4.00158576
    C      1.49742603     13.07933247      0.23787905      3.99877439
    C      1.50208145     14.44764259      0.23861717      3.99339810
    C      1.50937130     15.67734286      0.23959563      4.06526152
    C      0.27714639     19.23705972      0.23986975      3.94043557
    C      0.27792199     17.81448391      0.24006684      3.94044343
    C      1.51013339     17.10350220      0.23984747      3.94043905
    C      2.74186146     17.81534861      0.24025971      3.94049545
    C      2.74112459     19.23807612      0.24050473      3.94051835
    C      1.50883044     19.94899134      0.23987276      3.94047378
    C      3.97692326     17.10207229      0.23979160      4.06526157
    C      5.03957345     16.48312663      0.23974054      3.99341202
    C      6.22339679     15.79673457      0.23967946      3.99876489
    C      7.29345077     15.17571505      0.23964753      4.00159998
    C      8.47331505     14.49296766      0.23968732      4.00048240
    C      9.54612084     13.87309993      0.23982536      4.00051111
    C     10.72756466     13.19298778      0.24008743      4.00157777
    C     11.80108594     12.57791117      0.24044756      3.99879308
    C     12.98809078     11.89689593      0.24080393      3.99338585
    C     14.05576354     11.28661905      0.24116157      4.06527819
    C      3.97599135     19.95137330      0.24080481      4.06525695
    C      5.04136311     20.56547471      0.24216451      3.99341800
    C      6.22633105     21.24958127      0.24318320      3.99877805
    C      7.29759919     21.86833975      0.24409438      4.00159237
    C      8.47761910     22.55047209      0.24450506      4.00050552
    C      9.54987226     23.17107178      0.24448016      4.00049356
    C     10.72968671     23.85349239      0.24416370      4.00160354
    C     11.80054387     24.47287787      0.24344627      3.99876088
    C     12.98515085     25.15741793      0.24274086      3.99344550
    C     14.05012644     25.77204880      0.24184979      4.06522472
    C      1.50700346     21.37513436      0.23957710      4.06525933
    C      1.49774858     22.60483446      0.23850813      3.99340720
    C      1.49182038     23.97320814      0.23772095      3.99877671
    C      1.48555347     25.21038313      0.23717423      4.00159097
    C      1.48244514     26.57350278      0.23689761      4.00049866
    C      1.48195572     27.81245795      0.23691547      4.00049255
    C      1.48399336     29.17551728      0.23718596      4.00158625
    C      1.48976928     30.41264704      0.23769806      3.99877313
    C      1.49442493     31.78094051      0.23843628      3.99339951
    C      1.50171511     33.01063149      0.23941467      4.06525883
    C      0.26949161     36.57032211      0.23968875      3.94043484
    C      0.27027975     35.14775344      0.23988582      3.94044325
    C      1.50248288     34.43677501      0.23966646      3.94043915
    C      2.73420968     35.14860851      0.24007871      3.94049452
    C      2.73346826     36.57133312      0.24032373      3.94051930
    C      1.50117434     37.28224897      0.23969175      3.94047427
    C      3.96926719     34.43532833      0.23961060      4.06526116
    C      5.03191708     33.81638332      0.23955954      3.99341217
    C      6.21573978     33.12999078      0.23949846      3.99876489
    C      7.28579403     32.50897158      0.23946653      4.00160013
    C      8.46565896     31.82622434      0.23950632      4.00048256
    C      9.53846503     31.20635632      0.23964436      4.00051119
    C     10.71990922     30.52624379      0.23990644      4.00157802
    C     11.79343029     29.91116677      0.24026656      3.99879293
    C     12.98043458     29.23015164      0.24062293      3.99338595
    C     14.04810698     28.61987523      0.24098057      4.06527784
    C      3.96833362     37.28462973      0.24062382      4.06525634
    C      5.03370616     37.89872912      0.24198351      3.99341897
    C      6.21867328     38.58283735      0.24300219      3.99877753
    C      7.28994236     39.20159409      0.24391338      4.00159297
    C      8.46996181     39.88372768      0.24432406      4.00050505
    C      9.54221570     40.50432660      0.24429916      4.00049400
    C     10.72203104     41.18674702      0.24398270      4.00160266
    C     11.79288923     41.80613387      0.24326527      3.99876178
    C     12.97750112     42.49067687      0.24255986      3.99344286
    C     14.04247707     43.10531810      0.24166877      4.06522669
    C      1.49934647     38.70839048      0.23939611      4.06525864
    C      1.49009166     39.93808990      0.23832713      3.99340799
    C      1.48416341     41.30646312      0.23753994      3.99877602
    C      1.47789647     42.54363775      0.23699323      4.00159155
    C      1.47478811     43.90675765      0.23671661      4.00049803
    C      1.47429870     45.14571329      0.23673447      4.00049304
    C      1.47633631     46.50877390      0.23700497      4.00158525
    C      1.48211175     47.74590571      0.23751707      3.99877413
    C      1.48676865     49.11420457      0.23825529      3.99339707
    C      1.49406868     50.34390006      0.23923365      4.06526003
    C      0.26187858     53.90362412      0.23950779      3.94043969
    C      0.26264103     52.48103969      0.23970484      3.94044252
    C      1.49484481     51.77005659      0.23948548      3.94043659
    C      2.72656763     52.48191638      0.23989777      3.94049755
    C      2.72584702     53.90465960      0.24014273      3.94052036
    C      1.49355243     54.61560425      0.23951069      3.94047079
    C      3.96161054     51.76859471      0.23942960      4.06526265
    C      5.02425839     51.14964165      0.23937854      3.99341228
    C      6.20808145     50.46324441      0.23931746      3.99876536
    C      7.27813771     49.84222799      0.23928553      4.00160015
    C      8.45800122     49.15947857      0.23932532      4.00048315
    C      9.53080806     48.53961194      0.23946336      4.00051099
    C     10.71225265     47.85949826      0.23972544      4.00157918
    C     11.78577447     47.24441884      0.24008556      3.99879242
    C     12.97278409     46.56340577      0.24044193      3.99338777
    C     14.04046350     45.95313561      0.24079955      4.06527860
    C      3.96074413     54.61792375      0.24044276      4.06525451
    C      5.02612042     55.23202638      0.24180193      3.99341991
    C      6.21110235     55.91614226      0.24282297      3.99877396
    C      7.28238050     56.53490656      0.24373596      4.00159628
    C      8.46243249     57.21705807      0.24414236      4.00050325
    C      9.53470857     57.83765455      0.24409139      4.00049638
    C     10.71455682     58.52009775      0.24378112      4.00159931
    C     11.78542112     59.13951799      0.24310803      3.99876613
    C     12.97005721     59.82411936      0.24242940      3.99343592
    C     14.03502303     60.43882741      0.24155747      4.06523435
    C      1.49169010     56.04176401      0.23921471      4.06526194
    C      1.48243572     57.27146878      0.23814554      3.99340189
    C      1.47650511     58.63984340      0.23736073      3.99877717
    C      1.47024158     59.87702474      0.23681605      4.00159109
    C      1.46713266     61.24016647      0.23653526      4.00049985
    C      1.46663765     62.47912831      0.23652721      4.00049113
    C      1.46867373     63.84222122      0.23680409      4.00159295
    C      1.47444935     65.07936345      0.23736041      3.99876868
    C      1.47915826     66.44765341      0.23812521      3.99340609
    C      1.48665373     67.67732278      0.23912178      4.06524565
    C     15.29917239     -6.75876592      0.24163010      3.94041351
    C     15.29985785     -8.18134402      0.24178865      3.94045647
    C     16.53190890     -8.89268499      0.24165600      3.94044788
    C     17.76387476     -8.18118668      0.24195249      3.94047445
    C     17.76329644     -6.75841704      0.24215924      3.94053206
    C     16.53108941     -6.04726361      0.24168161      3.94047670
    C     18.99896451     -8.89457414      0.24190548      4.06527704
    C     20.06184062     -9.51319891      0.24176345      3.99339528
    C     21.24577246    -10.19955343      0.24168003      3.99877609
    C     22.31585215    -10.82059703      0.24156670      4.00159111
    C     23.49576039    -11.50337900      0.24161070      4.00049097
    C     24.56858524    -12.12325863      0.24176958      4.00050246
    C     25.75005574    -12.80338277      0.24203558      4.00158566
    C     26.82358671    -13.41846407      0.24240898      3.99878370
    C     28.01057341    -14.09953246      0.24274098      3.99339269
    C     29.07816719    -14.70995962      0.24305103      4.06527161
    C     18.99823902     -6.04513469      0.24303989      4.06526285
    C     20.06365422     -5.43106468      0.24421130      3.99341811
    C     21.24866455     -4.74695006      0.24516802      3.99877709
    C     22.31994320     -4.12817390      0.24600647      4.00159491
    C     23.49998649     -3.44602548      0.24642699      4.00050290
    C     24.57225399     -2.82541899      0.24642689      4.00049658
    C     25.75209738     -2.14298259      0.24611134      4.00160159
    C     26.82297143     -1.52358654      0.24539027      3.99876462
    C     28.00761072     -0.83902819      0.24468427      3.99344197
    C     29.07260376     -0.22438709      0.24379300      4.06523175
    C     16.52949685     -4.62114936      0.24133594      4.06524832
    C     16.52024076     -3.39146325      0.24043487      3.99341623
    C     16.51438113     -2.02310422      0.23974624      3.99876914
    C     16.50808935     -0.78593223      0.23911957      4.00159817
    C     16.50498135      0.57719354      0.23883153      4.00049306
    C     16.50449400      1.81615775      0.23885255      4.00049916
    C     16.50654717      3.17924866      0.23913760      4.00158199
    C     16.51234024      4.41640417      0.23972102      3.99878174
    C     16.51685923      5.78475720      0.24034549      3.99339013
    C     16.52343513      7.01449177      0.24110605      4.06527610
    C     15.29162838     10.57467479      0.24146962      3.94040694
    C     15.29244432      9.15209504      0.24166676      3.94046219
    C     16.52447642      8.44072602      0.24153438      3.94044862
    C     17.75638901      9.15226992      0.24179212      3.94047131
    C     17.75573322     10.57501758      0.24203775      3.94053778
    C     16.52353590     11.28615102      0.24156022      3.94047364
    C     18.99141784      8.43883156      0.24177841      4.06526978
    C     20.05420805      7.82008608      0.24158886      3.99339740
    C     21.23808813      7.13370219      0.24148146      3.99877064
    C     22.30816091      6.51267155      0.24138461      4.00159331
    C     23.48806007      5.82989655      0.24143165      4.00048606
    C     24.56088482      5.21001530      0.24159053      4.00050660
    C     25.74236533      4.52988156      0.24185349      4.00158168
    C     26.81590391      3.91479510      0.24221039      3.99878866
    C     28.00293377      3.23376581      0.24256633      3.99338795
    C     29.07061704      2.62348268      0.24292377      4.06527560
    C     18.99063652     11.28827690      0.24279191      4.06525574
    C     20.05608130     11.90226165      0.24401209      3.99342511
    C     21.24108404     12.58634512      0.24498466      3.99877454
    C     22.31235719     13.20511682      0.24583113      4.00159781
    C     23.49239558     13.88726521      0.24624927      4.00050299
    C     24.56466022     14.50787341      0.24624527      4.00049798
    C     25.74449840     15.19030762      0.24592973      4.00160199
    C     26.81536836     15.80969949      0.24520924      3.99876445
    C     27.99999426     16.49425120      0.24450336      3.99344318
    C     29.06497952     17.10888711      0.24361198      4.06522946
    C     16.52195982     12.71223763      0.24108785      4.06524700
    C     16.51260260     13.94191344      0.24023548      3.99341769
    C     16.50672243     15.31025830      0.23956226      3.99876933
    C     16.50042592     16.54742410      0.23894374      4.00159759
    C     16.49732123     17.91053895      0.23865344      4.00049389
    C     16.49683748     19.14949635      0.23867085      4.00049821
    C     16.49889006     20.51257246      0.23895603      4.00158246
    C     16.50468365     21.74971873      0.23954004      3.99878053
    C     16.50920158     23.11805540      0.24016460      3.99339154
    C     16.51577849     24.34778040      0.24092509      4.06527336
    C     15.28397358     27.90793693      0.24128862      3.94040614
    C     15.28480139     26.48536459      0.24148573      3.94046193
    C     16.51682513     25.77399886      0.24135337      3.94044878
    C     17.74873672     26.48552952      0.24161113      3.94047037
    C     17.74807665     27.90827430      0.24185674      3.94053875
    C     16.51587955     28.61940826      0.24137921      3.94047409
    C     18.98376157     25.77208721      0.24159741      4.06526946
    C     20.04655155     25.15334208      0.24140785      3.99339752
    C     21.23043120     24.46695792      0.24130046      3.99877066
    C     22.30050431     23.84592748      0.24120361      4.00159347
    C     23.48040423     23.16315283      0.24125065      4.00048621
    C     24.55322894     22.54327122      0.24140953      4.00050667
    C     25.73471006     21.86313769      0.24167249      4.00158192
    C     26.80824817     21.24805077      0.24202939      3.99878851
    C     27.99527763     20.56702143      0.24238533      3.99338807
    C     29.06296046     19.95673873      0.24274277      4.06527534
    C     18.98297895     28.62153273      0.24261092      4.06525514
    C     20.04842459     29.23551545      0.24383109      3.99342606
    C     21.23342632     29.91960094      0.24480366      3.99877401
    C     22.30470013     30.53837110      0.24565013      4.00159839
    C     23.48473785     31.22052063      0.24606827      4.00050245
    C     24.55700279     31.84112827      0.24606427      4.00049841
    C     25.73684188     32.52356270      0.24574873      4.00160116
    C     26.80771299     33.14295640      0.24502825      3.99876534
    C     27.99234414     33.82751067      0.24432236      3.99344061
    C     29.05733056     34.44215655      0.24343096      4.06523136
    C     16.51430357     30.04549355      0.24090686      4.06524638
    C     16.50494550     31.27516896      0.24005448      3.99341847
    C     16.49906488     32.64351350      0.23938126      3.99876866
    C     16.49276919     33.88067933      0.23876274      4.00159819
    C     16.48966407     35.24379426      0.23847244      4.00049319
    C     16.48918098     36.48275207      0.23848985      4.00049873
    C     16.49123360     37.84582954      0.23877504      4.00158148
    C     16.49702620     39.08297796      0.23935905      3.99878150
    C     16.50154592     40.45131975      0.23998361      3.99338911
    C     16.50813248     41.68104926      0.24074407      4.06527443
    C     15.27636076     45.24123934      0.24110766      3.94041090
    C     15.27716264     43.81865116      0.24130475      3.94046132
    C     16.50918729     43.10728031      0.24117238      3.94044623
    C     17.74109458     43.81883788      0.24143020      3.94047344
    C     17.74045505     45.24160149      0.24167577      3.94053997
    C     16.50825747     45.95276399      0.24119815      3.94047056
    C     18.97610469     43.10535449      0.24141640      4.06527083
    C     20.03889280     42.48660181      0.24122685      3.99339772
    C     21.22277222     41.80021183      0.24111946      3.99877111
    C     22.29284696     41.17918370      0.24102261      4.00159350
    C     23.47274613     40.49640770      0.24106965      4.00048682
    C     24.54557168     39.87652722      0.24122854      4.00050648
    C     25.72705336     39.19639295      0.24149149      4.00158303
    C     26.80059186     38.58130299      0.24184839      3.99878803
    C     27.98762649     37.90027537      0.24220433      3.99338978
    C     29.05531671     37.28999940      0.24256175      4.06527619
    C     18.97538954     45.95482804      0.24242980      4.06525340
    C     20.04083777     46.56881412      0.24364953      3.99342685
    C     21.22585505     47.25290746      0.24462445      3.99877069
    C     22.29713874     47.87168468      0.24547271      4.00160159
    C     23.47720906     48.55385123      0.24588656      4.00050071
    C     24.54949696     49.17445633      0.24585650      4.00050086
    C     25.72936858     49.85691264      0.24554715      4.00159766
    C     26.80024610     50.47633819      0.24487101      3.99876970
    C     27.98490083     51.16095173      0.24419190      3.99343368
    C     29.04987663     51.77566512      0.24331965      4.06523908
    C     16.50664693     47.37886636      0.24072547      4.06524920
    C     16.49728969     48.60854597      0.23987288      3.99341252
    C     16.49140755     49.97689230      0.23920203      3.99876981
    C     16.48511393     51.21406463      0.23858556      4.00159771
    C     16.48200934     52.57720185      0.23829109      4.00049504
    C     16.48151920     53.81616637      0.23828260      4.00049688
    C     16.48357137     55.17927591      0.23857417      4.00158908
    C     16.48936356     56.41643447      0.23920233      3.99877577
    C     16.49393591     57.78476675      0.23985356      3.99339859
    C     16.50071870     59.01447315      0.24063232      4.06525976
    C     30.31403675    -15.42191264      0.24339287      3.94041492
    C     30.31472152    -16.84449605      0.24355146      3.94045451
    C     31.54678044    -17.55583232      0.24341868      3.94044890
    C     32.77874928    -16.84433518      0.24371513      3.94047313
    C     32.77817043    -15.42156599      0.24392186      3.94053202
    C     31.54596106    -14.71041380      0.24344415      3.94047638
    C     34.01383940    -17.55772284      0.24366762      4.06527828
    C     35.07671636    -18.17634804      0.24352599      3.99339398
    C     36.26064697    -18.86270306      0.24344267      3.99877750
    C     37.33072729    -19.48374642      0.24332870      4.00159007
    C     38.51063497    -20.16652808      0.24337332      4.00049263
    C     39.58345998    -20.78640770      0.24353179      4.00050153
    C     40.76493185    -21.46653090      0.24379860      4.00158822
    C     41.83846180    -22.08161296      0.24417160      3.99878208
    C     43.02544816    -22.76268107      0.24450395      3.99339725
    C     44.09303748    -23.37310895      0.24481425      4.06526986
    C     34.01311339    -14.70828373      0.24480224      4.06526307
    C     35.07852975    -14.09421395      0.24597385      3.99341790
    C     36.26353950    -13.41009852      0.24693111      3.99877704
    C     37.33481825    -12.79132317      0.24776900      4.00159488
    C     38.51486229    -12.10917440      0.24818973      4.00050321
    C     39.58712954    -11.48856865      0.24818947      4.00049641
    C     40.76697278    -10.80613189      0.24787445      4.00160229
    C     41.83784625    -10.18673712      0.24715294      3.99876408
    C     43.02248198     -9.50217920      0.24644709      3.99344384
    C     44.08746712     -8.88753502      0.24555591      4.06522998
    C     31.54437226    -13.28429903      0.24309829      4.06524917
    C     31.53511604    -12.05461259      0.24219768      3.99341561
    C     31.52925667    -10.68625316      0.24150840      3.99876958
    C     31.52296483     -9.44908128      0.24088250      4.00159750
    C     31.51985632     -8.08595514      0.24059398      4.00049324
    C     31.51936940     -6.84699142      0.24061495      4.00049852
    C     31.52142239     -5.48390025      0.24090048      4.00158199
    C     31.52721581     -4.24674496      0.24148329      3.99878127
    C     31.53173442     -2.87839171      0.24210842      3.99338992
    C     31.53831059     -1.64865678      0.24286841      4.06527599
    C     30.30649301      1.91152820      0.24323239      3.94040829
    C     30.30730801      0.48894316      0.24342958      3.94046039
    C     31.53934803     -0.22242174      0.24329706      3.94044954
    C     32.77126335      0.48912118      0.24355470      3.94046999
    C     32.77060726      1.91186867      0.24380025      3.94053788
    C     31.53840753      2.62300101      0.24332269      3.94047330
    C     34.00629219     -0.22431691      0.24354050      4.06527091
    C     35.06908366     -0.84306259      0.24335140      3.99339631
    C     36.25296311     -1.52944677      0.24324411      3.99877191
    C     37.32303651     -2.15047658      0.24314661      4.00159240
    C     38.50293580     -2.83325270      0.24319427      4.00048781
    C     39.57576017     -3.45313315      0.24335275      4.00050547
    C     40.75724101     -4.13326714      0.24361651      4.00158434
    C     41.83077890     -4.74835312      0.24397302      3.99878690
    C     43.01780684     -5.42938267      0.24432930      3.99339238
    C     44.08548687     -6.03966578      0.24468700      4.06527406
    C     34.00551088      2.62512787      0.24455398      4.06525588
    C     35.07095638      3.23911255      0.24577471      3.99342478
    C     36.25595916      3.92319562      0.24674737      3.99877471
    C     37.32723262      4.54196806      0.24759351      4.00159772
    C     38.50727137      5.22411596      0.24801185      4.00050323
    C     39.57953582      5.84472445      0.24800789      4.00049789
    C     40.75937433      6.52715754      0.24769294      4.00160270
    C     41.83024256      7.14655029      0.24697191      3.99876384
    C     43.01486538      7.83109992      0.24626617      3.99344496
    C     44.07984251      8.44573986      0.24537488      4.06522791
    C     31.53683477      4.04908810      0.24285015      4.06524782
    C     31.52747773      5.27876403      0.24199828      3.99341706
    C     31.52159747      6.64710935      0.24132442      3.99876979
    C     31.51530108      7.88427502      0.24070667      4.00159688
    C     31.51219630      9.24739021      0.24041588      4.00049410
    C     31.51171275     10.48634737      0.24043325      4.00049759
    C     31.51376500     11.84942368      0.24071892      4.00158243
    C     31.51955919     13.08656982      0.24130231      3.99878009
    C     31.52407706     14.45490674      0.24192754      3.99339131
    C     31.53065381     15.68463192      0.24268744      4.06527320
    C     30.29883850     19.24479000      0.24305139      3.94040759
    C     30.29966502     17.82221243      0.24324855      3.94046001
    C     31.53169636     17.11085101      0.24311605      3.94044960
    C     32.76361035     17.82238117      0.24337370      3.94046919
    C     32.76295101     19.24512581      0.24361925      3.94053881
    C     31.53075130     19.95625857      0.24314169      3.94047378
    C     33.99863601     17.10893878      0.24335950      4.06527074
    C     35.06142676     16.49019392      0.24317039      3.99339635
    C     36.24530663     15.80380954      0.24306311      3.99877214
    C     37.31538021     15.18277964      0.24296561      4.00159239
    C     38.49527955     14.50000464      0.24301327      4.00048797
    C     39.56810397     13.88012258      0.24317175      4.00050567
    C     40.74958485     13.19998898      0.24343551      4.00158440
    C     41.82312224     12.58490253      0.24379202      3.99878689
    C     43.01015081     11.90387375      0.24414830      3.99339249
    C     44.07782985     11.29359005      0.24450600      4.06527380
    C     33.99785393     19.95838418      0.24437299      4.06525526
    C     35.06329939     20.57236713      0.24559371      3.99342562
    C     36.24830114     21.25645198      0.24656636      3.99877419
    C     37.31957544     21.87522154      0.24741250      4.00159820
    C     38.49961303     22.55737129      0.24783085      4.00050277
    C     39.57187912     23.17797806      0.24782689      4.00049842
    C     40.75171794     23.86041286      0.24751194      4.00160179
    C     41.82258834     24.47980529      0.24679091      3.99876476
    C     43.00721628     25.16435844      0.24608517      3.99344242
    C     44.07219401     25.77900837      0.24519386      4.06522971
    C     31.52917851     21.38234433      0.24266916      4.06524713
    C     31.51982061     22.61201956      0.24181728      3.99341782
    C     31.51393999     23.98036475      0.24114342      3.99876920
    C     31.50764427     25.21753030      0.24052567      4.00159741
    C     31.50453912     26.58064548      0.24023488      4.00049347
    C     31.50405627     27.81960325      0.24025225      4.00049811
    C     31.50610855     29.18268060      0.24053792      4.00158138
    C     31.51190180     30.41982862      0.24112132      3.99878110
    C     31.51642140     31.78817093      0.24174654      3.99338883
    C     31.52300743     33.01790046      0.24250642      4.06527449
    C     30.29122556     36.57809230      0.24287043      3.94041224
    C     30.29202634     35.15549900      0.24306758      3.94045933
    C     31.52405863     34.44413285      0.24293507      3.94044715
    C     32.75596849     35.15568897      0.24319278      3.94047200
    C     32.75532959     36.57845178      0.24343827      3.94053994
    C     31.52312941     37.28961328      0.24296063      3.94047025
    C     33.99097875     34.44220547      0.24317849      4.06527209
    C     35.05376748     33.82345151      0.24298939      3.99339658
    C     36.23764783     33.13706322      0.24288211      3.99877246
    C     37.30772300     32.51603508      0.24278461      4.00159247
    C     38.48762249     31.83325905      0.24283227      4.00048872
    C     39.56044818     31.21337810      0.24299075      4.00050535
    C     40.74192931     30.53324382      0.24325451      4.00158558
    C     41.81546792     29.91815481      0.24361102      3.99878639
    C     43.00250068     29.23712784      0.24396730      3.99339414
    C     44.07018625     28.62685012      0.24432498      4.06527438
    C     33.99026440     37.29167817      0.24419187      4.06525351
    C     35.05571330     37.90566437      0.24541215      3.99342653
    C     36.24073071     38.58975701      0.24638715      3.99877074
    C     37.31201414     39.20853486      0.24723509      4.00160152
    C     38.49208448     39.89070234      0.24764915      4.00050092
    C     39.56437249     40.51130659      0.24761912      4.00050080
    C     40.74424440     41.19376362      0.24731037      4.00159841
    C     41.81511984     41.81319046      0.24663367      3.99876905
    C     42.99977207     42.49780152      0.24595471      3.99343556
    C     44.06474040     43.11251733      0.24508255      4.06523735
    C     31.52152212     38.71571741      0.24248777      4.06525042
    C     31.51216498     39.94539781      0.24163568      3.99341176
    C     31.50628235     41.31374471      0.24096420      3.99877033
    C     31.49998940     42.55091683      0.24034849      4.00159697
    C     31.49688465     43.91405367      0.24005353      4.00049517
    C     31.49639466     45.15301729      0.24004500      4.00049622