 48
Geometry Step: 23
    C      6.22139831      5.00661557      0.00427187      3.93804876
    C      6.21093342      3.58776590      0.01297293      3.93805863
    C      7.43441472      2.86915201      0.02151238      3.93806998
    C      8.66858655      3.56926591      0.02057199      3.93804271
    C      8.67912874      4.98814739      0.01053100      3.93807333
    C      7.45557302      5.70678111      0.00264036      3.93806531
    C      7.46630016      7.13909942     -0.00541428      4.06195460
    C      7.47528245      8.35806755     -0.01054507      4.06194227
    C      9.92497673      5.69498862      0.00816586      4.06194713
    C     10.98516613      6.29660597      0.00555051      4.06194020
    C      9.90355671      2.84371214      0.02913760      4.06193604
    C     10.95467548      2.22633953      0.03456423      4.06192640
    C      0.25292521      8.51243946      0.00088598      3.93804330
    C      0.24240470      7.09356849      0.00703734      3.93806454
    C      1.46594765      6.37498688      0.00549942      3.93806220
    C      2.70013196      7.07504192     -0.00188804      3.93804734
    C      2.71057972      8.49392680     -0.00811945      3.93806583
    C      1.48705981      9.21265717     -0.00677393      3.93807177
    C      1.49761800     10.64501060     -0.01433420      4.06196126
    C      1.50675822     11.86395538     -0.02275840      4.06193291
    C      3.95634730      9.20068764     -0.01480406      4.06193442
    C      5.01678405      9.80190295     -0.01855543      4.06194808
    C      3.93526467      6.34958786     -0.00179548      4.06192788
    C      4.98625439      5.73201223     -0.00046752      4.06192733
    C      6.16978580     -1.91439315      0.05667691      3.93805451
    C      6.15927760     -3.33328240      0.06490357      3.93806529
    C      7.38287094     -4.05180755      0.06965951      3.93807865
    C      8.61700772     -3.35155903      0.06686418      3.93805178
    C      8.62740553     -1.93269771      0.05895765      3.93805784
    C      7.40388546     -1.21416002      0.05349269      3.93805769
    C      7.41457604      0.21803593      0.04301650      4.06193986
    C      7.42364346      1.43692332      0.03215629      4.06194157
    C      9.87314289     -1.22590982      0.05429499      4.06193136
    C     10.93355568     -0.62475452      0.04893583      4.06194778
    C      9.85210655     -4.07705019      0.07047968      4.06194213
    C     10.90340254     -4.69417200      0.07237003      4.06193208
    C      0.20148022      1.59155080      0.03942430      3.93804354
    C      0.19085894      0.17271084      0.05057769      3.93806033
    C      1.41437329     -0.54597199      0.05294713      3.93807351
    C      2.64859920      0.15403629      0.04299365      3.93804406
    C      2.65912541      1.57287245      0.03081699      3.93806389
    C      1.43566234      2.29156207      0.02978725      3.93806547
    C      1.44639266      3.72380437      0.01927277      4.06195763
    C      1.45532955      4.94276998      0.01223007      4.06194185
    C      3.90482796      2.27968087      0.02137933      4.06194243
    C      4.96520295      2.88097037      0.01592581      4.06194352
    C      3.88372381     -0.57134708      0.04612097      4.06194089
    C      4.93471033     -1.18899980      0.05081558      4.06193009
